# vtk DataFile Version 2.0 
Visualization 
ASCII 
DATASET STRUCTURED_GRID 
DIMENSIONS 21 21 21
POINTS 9261 float
0 0 0
0.1 0 0
0.2 0 0
0.3 0 0
0.4 0 0
0.5 0 0
0.6 0 0
0.7 0 0
0.8 0 0
0.9 0 0
1 0 0
1.1 0 0
1.2 0 0
1.3 0 0
1.4 0 0
1.5 0 0
1.6 0 0
1.7 0 0
1.8 0 0
1.9 0 0
2 0 0
0 0.1 0
0.1 0.1 0
0.2 0.1 0
0.3 0.1 0
0.4 0.1 0
0.5 0.1 0
0.6 0.1 0
0.7 0.1 0
0.8 0.1 0
0.9 0.1 0
1 0.1 0
1.1 0.1 0
1.2 0.1 0
1.3 0.1 0
1.4 0.1 0
1.5 0.1 0
1.6 0.1 0
1.7 0.1 0
1.8 0.1 0
1.9 0.1 0
2 0.1 0
0 0.2 0
0.1 0.2 0
0.2 0.2 0
0.3 0.2 0
0.4 0.2 0
0.5 0.2 0
0.6 0.2 0
0.7 0.2 0
0.8 0.2 0
0.9 0.2 0
1 0.2 0
1.1 0.2 0
1.2 0.2 0
1.3 0.2 0
1.4 0.2 0
1.5 0.2 0
1.6 0.2 0
1.7 0.2 0
1.8 0.2 0
1.9 0.2 0
2 0.2 0
0 0.3 0
0.1 0.3 0
0.2 0.3 0
0.3 0.3 0
0.4 0.3 0
0.5 0.3 0
0.6 0.3 0
0.7 0.3 0
0.8 0.3 0
0.9 0.3 0
1 0.3 0
1.1 0.3 0
1.2 0.3 0
1.3 0.3 0
1.4 0.3 0
1.5 0.3 0
1.6 0.3 0
1.7 0.3 0
1.8 0.3 0
1.9 0.3 0
2 0.3 0
0 0.4 0
0.1 0.4 0
0.2 0.4 0
0.3 0.4 0
0.4 0.4 0
0.5 0.4 0
0.6 0.4 0
0.7 0.4 0
0.8 0.4 0
0.9 0.4 0
1 0.4 0
1.1 0.4 0
1.2 0.4 0
1.3 0.4 0
1.4 0.4 0
1.5 0.4 0
1.6 0.4 0
1.7 0.4 0
1.8 0.4 0
1.9 0.4 0
2 0.4 0
0 0.5 0
0.1 0.5 0
0.2 0.5 0
0.3 0.5 0
0.4 0.5 0
0.5 0.5 0
0.6 0.5 0
0.7 0.5 0
0.8 0.5 0
0.9 0.5 0
1 0.5 0
1.1 0.5 0
1.2 0.5 0
1.3 0.5 0
1.4 0.5 0
1.5 0.5 0
1.6 0.5 0
1.7 0.5 0
1.8 0.5 0
1.9 0.5 0
2 0.5 0
0 0.6 0
0.1 0.6 0
0.2 0.6 0
0.3 0.6 0
0.4 0.6 0
0.5 0.6 0
0.6 0.6 0
0.7 0.6 0
0.8 0.6 0
0.9 0.6 0
1 0.6 0
1.1 0.6 0
1.2 0.6 0
1.3 0.6 0
1.4 0.6 0
1.5 0.6 0
1.6 0.6 0
1.7 0.6 0
1.8 0.6 0
1.9 0.6 0
2 0.6 0
0 0.7 0
0.1 0.7 0
0.2 0.7 0
0.3 0.7 0
0.4 0.7 0
0.5 0.7 0
0.6 0.7 0
0.7 0.7 0
0.8 0.7 0
0.9 0.7 0
1 0.7 0
1.1 0.7 0
1.2 0.7 0
1.3 0.7 0
1.4 0.7 0
1.5 0.7 0
1.6 0.7 0
1.7 0.7 0
1.8 0.7 0
1.9 0.7 0
2 0.7 0
0 0.8 0
0.1 0.8 0
0.2 0.8 0
0.3 0.8 0
0.4 0.8 0
0.5 0.8 0
0.6 0.8 0
0.7 0.8 0
0.8 0.8 0
0.9 0.8 0
1 0.8 0
1.1 0.8 0
1.2 0.8 0
1.3 0.8 0
1.4 0.8 0
1.5 0.8 0
1.6 0.8 0
1.7 0.8 0
1.8 0.8 0
1.9 0.8 0
2 0.8 0
0 0.9 0
0.1 0.9 0
0.2 0.9 0
0.3 0.9 0
0.4 0.9 0
0.5 0.9 0
0.6 0.9 0
0.7 0.9 0
0.8 0.9 0
0.9 0.9 0
1 0.9 0
1.1 0.9 0
1.2 0.9 0
1.3 0.9 0
1.4 0.9 0
1.5 0.9 0
1.6 0.9 0
1.7 0.9 0
1.8 0.9 0
1.9 0.9 0
2 0.9 0
0 1 0
0.1 1 0
0.2 1 0
0.3 1 0
0.4 1 0
0.5 1 0
0.6 1 0
0.7 1 0
0.8 1 0
0.9 1 0
1 1 0
1.1 1 0
1.2 1 0
1.3 1 0
1.4 1 0
1.5 1 0
1.6 1 0
1.7 1 0
1.8 1 0
1.9 1 0
2 1 0
0 1.1 0
0.1 1.1 0
0.2 1.1 0
0.3 1.1 0
0.4 1.1 0
0.5 1.1 0
0.6 1.1 0
0.7 1.1 0
0.8 1.1 0
0.9 1.1 0
1 1.1 0
1.1 1.1 0
1.2 1.1 0
1.3 1.1 0
1.4 1.1 0
1.5 1.1 0
1.6 1.1 0
1.7 1.1 0
1.8 1.1 0
1.9 1.1 0
2 1.1 0
0 1.2 0
0.1 1.2 0
0.2 1.2 0
0.3 1.2 0
0.4 1.2 0
0.5 1.2 0
0.6 1.2 0
0.7 1.2 0
0.8 1.2 0
0.9 1.2 0
1 1.2 0
1.1 1.2 0
1.2 1.2 0
1.3 1.2 0
1.4 1.2 0
1.5 1.2 0
1.6 1.2 0
1.7 1.2 0
1.8 1.2 0
1.9 1.2 0
2 1.2 0
0 1.3 0
0.1 1.3 0
0.2 1.3 0
0.3 1.3 0
0.4 1.3 0
0.5 1.3 0
0.6 1.3 0
0.7 1.3 0
0.8 1.3 0
0.9 1.3 0
1 1.3 0
1.1 1.3 0
1.2 1.3 0
1.3 1.3 0
1.4 1.3 0
1.5 1.3 0
1.6 1.3 0
1.7 1.3 0
1.8 1.3 0
1.9 1.3 0
2 1.3 0
0 1.4 0
0.1 1.4 0
0.2 1.4 0
0.3 1.4 0
0.4 1.4 0
0.5 1.4 0
0.6 1.4 0
0.7 1.4 0
0.8 1.4 0
0.9 1.4 0
1 1.4 0
1.1 1.4 0
1.2 1.4 0
1.3 1.4 0
1.4 1.4 0
1.5 1.4 0
1.6 1.4 0
1.7 1.4 0
1.8 1.4 0
1.9 1.4 0
2 1.4 0
0 1.5 0
0.1 1.5 0
0.2 1.5 0
0.3 1.5 0
0.4 1.5 0
0.5 1.5 0
0.6 1.5 0
0.7 1.5 0
0.8 1.5 0
0.9 1.5 0
1 1.5 0
1.1 1.5 0
1.2 1.5 0
1.3 1.5 0
1.4 1.5 0
1.5 1.5 0
1.6 1.5 0
1.7 1.5 0
1.8 1.5 0
1.9 1.5 0
2 1.5 0
0 1.6 0
0.1 1.6 0
0.2 1.6 0
0.3 1.6 0
0.4 1.6 0
0.5 1.6 0
0.6 1.6 0
0.7 1.6 0
0.8 1.6 0
0.9 1.6 0
1 1.6 0
1.1 1.6 0
1.2 1.6 0
1.3 1.6 0
1.4 1.6 0
1.5 1.6 0
1.6 1.6 0
1.7 1.6 0
1.8 1.6 0
1.9 1.6 0
2 1.6 0
0 1.7 0
0.1 1.7 0
0.2 1.7 0
0.3 1.7 0
0.4 1.7 0
0.5 1.7 0
0.6 1.7 0
0.7 1.7 0
0.8 1.7 0
0.9 1.7 0
1 1.7 0
1.1 1.7 0
1.2 1.7 0
1.3 1.7 0
1.4 1.7 0
1.5 1.7 0
1.6 1.7 0
1.7 1.7 0
1.8 1.7 0
1.9 1.7 0
2 1.7 0
0 1.8 0
0.1 1.8 0
0.2 1.8 0
0.3 1.8 0
0.4 1.8 0
0.5 1.8 0
0.6 1.8 0
0.7 1.8 0
0.8 1.8 0
0.9 1.8 0
1 1.8 0
1.1 1.8 0
1.2 1.8 0
1.3 1.8 0
1.4 1.8 0
1.5 1.8 0
1.6 1.8 0
1.7 1.8 0
1.8 1.8 0
1.9 1.8 0
2 1.8 0
0 1.9 0
0.1 1.9 0
0.2 1.9 0
0.3 1.9 0
0.4 1.9 0
0.5 1.9 0
0.6 1.9 0
0.7 1.9 0
0.8 1.9 0
0.9 1.9 0
1 1.9 0
1.1 1.9 0
1.2 1.9 0
1.3 1.9 0
1.4 1.9 0
1.5 1.9 0
1.6 1.9 0
1.7 1.9 0
1.8 1.9 0
1.9 1.9 0
2 1.9 0
0 2 0
0.1 2 0
0.2 2 0
0.3 2 0
0.4 2 0
0.5 2 0
0.6 2 0
0.7 2 0
0.8 2 0
0.9 2 0
1 2 0
1.1 2 0
1.2 2 0
1.3 2 0
1.4 2 0
1.5 2 0
1.6 2 0
1.7 2 0
1.8 2 0
1.9 2 0
2 2 0
0 0 0.1
0.1 0 0.1
0.2 0 0.1
0.3 0 0.1
0.4 0 0.1
0.5 0 0.1
0.6 0 0.1
0.7 0 0.1
0.8 0 0.1
0.9 0 0.1
1 0 0.1
1.1 0 0.1
1.2 0 0.1
1.3 0 0.1
1.4 0 0.1
1.5 0 0.1
1.6 0 0.1
1.7 0 0.1
1.8 0 0.1
1.9 0 0.1
2 0 0.1
0 0.1 0.1
0.1 0.1 0.1
0.2 0.1 0.1
0.3 0.1 0.1
0.4 0.1 0.1
0.5 0.1 0.1
0.6 0.1 0.1
0.7 0.1 0.1
0.8 0.1 0.1
0.9 0.1 0.1
1 0.1 0.1
1.1 0.1 0.1
1.2 0.1 0.1
1.3 0.1 0.1
1.4 0.1 0.1
1.5 0.1 0.1
1.6 0.1 0.1
1.7 0.1 0.1
1.8 0.1 0.1
1.9 0.1 0.1
2 0.1 0.1
0 0.2 0.1
0.1 0.2 0.1
0.2 0.2 0.1
0.3 0.2 0.1
0.4 0.2 0.1
0.5 0.2 0.1
0.6 0.2 0.1
0.7 0.2 0.1
0.8 0.2 0.1
0.9 0.2 0.1
1 0.2 0.1
1.1 0.2 0.1
1.2 0.2 0.1
1.3 0.2 0.1
1.4 0.2 0.1
1.5 0.2 0.1
1.6 0.2 0.1
1.7 0.2 0.1
1.8 0.2 0.1
1.9 0.2 0.1
2 0.2 0.1
0 0.3 0.1
0.1 0.3 0.1
0.2 0.3 0.1
0.3 0.3 0.1
0.4 0.3 0.1
0.5 0.3 0.1
0.6 0.3 0.1
0.7 0.3 0.1
0.8 0.3 0.1
0.9 0.3 0.1
1 0.3 0.1
1.1 0.3 0.1
1.2 0.3 0.1
1.3 0.3 0.1
1.4 0.3 0.1
1.5 0.3 0.1
1.6 0.3 0.1
1.7 0.3 0.1
1.8 0.3 0.1
1.9 0.3 0.1
2 0.3 0.1
0 0.4 0.1
0.1 0.4 0.1
0.2 0.4 0.1
0.3 0.4 0.1
0.4 0.4 0.1
0.5 0.4 0.1
0.6 0.4 0.1
0.7 0.4 0.1
0.8 0.4 0.1
0.9 0.4 0.1
1 0.4 0.1
1.1 0.4 0.1
1.2 0.4 0.1
1.3 0.4 0.1
1.4 0.4 0.1
1.5 0.4 0.1
1.6 0.4 0.1
1.7 0.4 0.1
1.8 0.4 0.1
1.9 0.4 0.1
2 0.4 0.1
0 0.5 0.1
0.1 0.5 0.1
0.2 0.5 0.1
0.3 0.5 0.1
0.4 0.5 0.1
0.5 0.5 0.1
0.6 0.5 0.1
0.7 0.5 0.1
0.8 0.5 0.1
0.9 0.5 0.1
1 0.5 0.1
1.1 0.5 0.1
1.2 0.5 0.1
1.3 0.5 0.1
1.4 0.5 0.1
1.5 0.5 0.1
1.6 0.5 0.1
1.7 0.5 0.1
1.8 0.5 0.1
1.9 0.5 0.1
2 0.5 0.1
0 0.6 0.1
0.1 0.6 0.1
0.2 0.6 0.1
0.3 0.6 0.1
0.4 0.6 0.1
0.5 0.6 0.1
0.6 0.6 0.1
0.7 0.6 0.1
0.8 0.6 0.1
0.9 0.6 0.1
1 0.6 0.1
1.1 0.6 0.1
1.2 0.6 0.1
1.3 0.6 0.1
1.4 0.6 0.1
1.5 0.6 0.1
1.6 0.6 0.1
1.7 0.6 0.1
1.8 0.6 0.1
1.9 0.6 0.1
2 0.6 0.1
0 0.7 0.1
0.1 0.7 0.1
0.2 0.7 0.1
0.3 0.7 0.1
0.4 0.7 0.1
0.5 0.7 0.1
0.6 0.7 0.1
0.7 0.7 0.1
0.8 0.7 0.1
0.9 0.7 0.1
1 0.7 0.1
1.1 0.7 0.1
1.2 0.7 0.1
1.3 0.7 0.1
1.4 0.7 0.1
1.5 0.7 0.1
1.6 0.7 0.1
1.7 0.7 0.1
1.8 0.7 0.1
1.9 0.7 0.1
2 0.7 0.1
0 0.8 0.1
0.1 0.8 0.1
0.2 0.8 0.1
0.3 0.8 0.1
0.4 0.8 0.1
0.5 0.8 0.1
0.6 0.8 0.1
0.7 0.8 0.1
0.8 0.8 0.1
0.9 0.8 0.1
1 0.8 0.1
1.1 0.8 0.1
1.2 0.8 0.1
1.3 0.8 0.1
1.4 0.8 0.1
1.5 0.8 0.1
1.6 0.8 0.1
1.7 0.8 0.1
1.8 0.8 0.1
1.9 0.8 0.1
2 0.8 0.1
0 0.9 0.1
0.1 0.9 0.1
0.2 0.9 0.1
0.3 0.9 0.1
0.4 0.9 0.1
0.5 0.9 0.1
0.6 0.9 0.1
0.7 0.9 0.1
0.8 0.9 0.1
0.9 0.9 0.1
1 0.9 0.1
1.1 0.9 0.1
1.2 0.9 0.1
1.3 0.9 0.1
1.4 0.9 0.1
1.5 0.9 0.1
1.6 0.9 0.1
1.7 0.9 0.1
1.8 0.9 0.1
1.9 0.9 0.1
2 0.9 0.1
0 1 0.1
0.1 1 0.1
0.2 1 0.1
0.3 1 0.1
0.4 1 0.1
0.5 1 0.1
0.6 1 0.1
0.7 1 0.1
0.8 1 0.1
0.9 1 0.1
1 1 0.1
1.1 1 0.1
1.2 1 0.1
1.3 1 0.1
1.4 1 0.1
1.5 1 0.1
1.6 1 0.1
1.7 1 0.1
1.8 1 0.1
1.9 1 0.1
2 1 0.1
0 1.1 0.1
0.1 1.1 0.1
0.2 1.1 0.1
0.3 1.1 0.1
0.4 1.1 0.1
0.5 1.1 0.1
0.6 1.1 0.1
0.7 1.1 0.1
0.8 1.1 0.1
0.9 1.1 0.1
1 1.1 0.1
1.1 1.1 0.1
1.2 1.1 0.1
1.3 1.1 0.1
1.4 1.1 0.1
1.5 1.1 0.1
1.6 1.1 0.1
1.7 1.1 0.1
1.8 1.1 0.1
1.9 1.1 0.1
2 1.1 0.1
0 1.2 0.1
0.1 1.2 0.1
0.2 1.2 0.1
0.3 1.2 0.1
0.4 1.2 0.1
0.5 1.2 0.1
0.6 1.2 0.1
0.7 1.2 0.1
0.8 1.2 0.1
0.9 1.2 0.1
1 1.2 0.1
1.1 1.2 0.1
1.2 1.2 0.1
1.3 1.2 0.1
1.4 1.2 0.1
1.5 1.2 0.1
1.6 1.2 0.1
1.7 1.2 0.1
1.8 1.2 0.1
1.9 1.2 0.1
2 1.2 0.1
0 1.3 0.1
0.1 1.3 0.1
0.2 1.3 0.1
0.3 1.3 0.1
0.4 1.3 0.1
0.5 1.3 0.1
0.6 1.3 0.1
0.7 1.3 0.1
0.8 1.3 0.1
0.9 1.3 0.1
1 1.3 0.1
1.1 1.3 0.1
1.2 1.3 0.1
1.3 1.3 0.1
1.4 1.3 0.1
1.5 1.3 0.1
1.6 1.3 0.1
1.7 1.3 0.1
1.8 1.3 0.1
1.9 1.3 0.1
2 1.3 0.1
0 1.4 0.1
0.1 1.4 0.1
0.2 1.4 0.1
0.3 1.4 0.1
0.4 1.4 0.1
0.5 1.4 0.1
0.6 1.4 0.1
0.7 1.4 0.1
0.8 1.4 0.1
0.9 1.4 0.1
1 1.4 0.1
1.1 1.4 0.1
1.2 1.4 0.1
1.3 1.4 0.1
1.4 1.4 0.1
1.5 1.4 0.1
1.6 1.4 0.1
1.7 1.4 0.1
1.8 1.4 0.1
1.9 1.4 0.1
2 1.4 0.1
0 1.5 0.1
0.1 1.5 0.1
0.2 1.5 0.1
0.3 1.5 0.1
0.4 1.5 0.1
0.5 1.5 0.1
0.6 1.5 0.1
0.7 1.5 0.1
0.8 1.5 0.1
0.9 1.5 0.1
1 1.5 0.1
1.1 1.5 0.1
1.2 1.5 0.1
1.3 1.5 0.1
1.4 1.5 0.1
1.5 1.5 0.1
1.6 1.5 0.1
1.7 1.5 0.1
1.8 1.5 0.1
1.9 1.5 0.1
2 1.5 0.1
0 1.6 0.1
0.1 1.6 0.1
0.2 1.6 0.1
0.3 1.6 0.1
0.4 1.6 0.1
0.5 1.6 0.1
0.6 1.6 0.1
0.7 1.6 0.1
0.8 1.6 0.1
0.9 1.6 0.1
1 1.6 0.1
1.1 1.6 0.1
1.2 1.6 0.1
1.3 1.6 0.1
1.4 1.6 0.1
1.5 1.6 0.1
1.6 1.6 0.1
1.7 1.6 0.1
1.8 1.6 0.1
1.9 1.6 0.1
2 1.6 0.1
0 1.7 0.1
0.1 1.7 0.1
0.2 1.7 0.1
0.3 1.7 0.1
0.4 1.7 0.1
0.5 1.7 0.1
0.6 1.7 0.1
0.7 1.7 0.1
0.8 1.7 0.1
0.9 1.7 0.1
1 1.7 0.1
1.1 1.7 0.1
1.2 1.7 0.1
1.3 1.7 0.1
1.4 1.7 0.1
1.5 1.7 0.1
1.6 1.7 0.1
1.7 1.7 0.1
1.8 1.7 0.1
1.9 1.7 0.1
2 1.7 0.1
0 1.8 0.1
0.1 1.8 0.1
0.2 1.8 0.1
0.3 1.8 0.1
0.4 1.8 0.1
0.5 1.8 0.1
0.6 1.8 0.1
0.7 1.8 0.1
0.8 1.8 0.1
0.9 1.8 0.1
1 1.8 0.1
1.1 1.8 0.1
1.2 1.8 0.1
1.3 1.8 0.1
1.4 1.8 0.1
1.5 1.8 0.1
1.6 1.8 0.1
1.7 1.8 0.1
1.8 1.8 0.1
1.9 1.8 0.1
2 1.8 0.1
0 1.9 0.1
0.1 1.9 0.1
0.2 1.9 0.1
0.3 1.9 0.1
0.4 1.9 0.1
0.5 1.9 0.1
0.6 1.9 0.1
0.7 1.9 0.1
0.8 1.9 0.1
0.9 1.9 0.1
1 1.9 0.1
1.1 1.9 0.1
1.2 1.9 0.1
1.3 1.9 0.1
1.4 1.9 0.1
1.5 1.9 0.1
1.6 1.9 0.1
1.7 1.9 0.1
1.8 1.9 0.1
1.9 1.9 0.1
2 1.9 0.1
0 2 0.1
0.1 2 0.1
0.2 2 0.1
0.3 2 0.1
0.4 2 0.1
0.5 2 0.1
0.6 2 0.1
0.7 2 0.1
0.8 2 0.1
0.9 2 0.1
1 2 0.1
1.1 2 0.1
1.2 2 0.1
1.3 2 0.1
1.4 2 0.1
1.5 2 0.1
1.6 2 0.1
1.7 2 0.1
1.8 2 0.1
1.9 2 0.1
2 2 0.1
0 0 0.2
0.1 0 0.2
0.2 0 0.2
0.3 0 0.2
0.4 0 0.2
0.5 0 0.2
0.6 0 0.2
0.7 0 0.2
0.8 0 0.2
0.9 0 0.2
1 0 0.2
1.1 0 0.2
1.2 0 0.2
1.3 0 0.2
1.4 0 0.2
1.5 0 0.2
1.6 0 0.2
1.7 0 0.2
1.8 0 0.2
1.9 0 0.2
2 0 0.2
0 0.1 0.2
0.1 0.1 0.2
0.2 0.1 0.2
0.3 0.1 0.2
0.4 0.1 0.2
0.5 0.1 0.2
0.6 0.1 0.2
0.7 0.1 0.2
0.8 0.1 0.2
0.9 0.1 0.2
1 0.1 0.2
1.1 0.1 0.2
1.2 0.1 0.2
1.3 0.1 0.2
1.4 0.1 0.2
1.5 0.1 0.2
1.6 0.1 0.2
1.7 0.1 0.2
1.8 0.1 0.2
1.9 0.1 0.2
2 0.1 0.2
0 0.2 0.2
0.1 0.2 0.2
0.2 0.2 0.2
0.3 0.2 0.2
0.4 0.2 0.2
0.5 0.2 0.2
0.6 0.2 0.2
0.7 0.2 0.2
0.8 0.2 0.2
0.9 0.2 0.2
1 0.2 0.2
1.1 0.2 0.2
1.2 0.2 0.2
1.3 0.2 0.2
1.4 0.2 0.2
1.5 0.2 0.2
1.6 0.2 0.2
1.7 0.2 0.2
1.8 0.2 0.2
1.9 0.2 0.2
[...]
CELL_DATA 8000
SCALARS pressure double 1 
LOOKUP_TABLE default 
-1.84811
-1.84811
-1.84811
-1.84811
-1.84811
-1.84811
-1.84811
-1.84811
-1.84811
-1.84811
-1.84811
-1.84811
-1.84811
-1.84811
-1.84811
-1.84811
-1.84811
-1.84811
-1.84811
-1.84811
-1.84811
-1.84811
260.772
258.158
255.479
248.249
233.075
207.853
171.902
125.954
71.9889
12.9579
-47.5974
-105.974
-158.747
-203.161
-237.444
-260.976
-274.305
-278.936
-276.893
-270.14
-1.84811
258.158
259.976
261.816
258.011
244.768
219.874
182.725
134.277
76.8562
13.8413
-50.7604
-112.788
-168.406
-214.54
-249.213
-271.747
-282.789
-284.129
-278.315
-268.278
-1.84811
255.479
261.816
268.727
268.985
258.14
233.754
195.271
143.908
82.4117
14.6896
-54.6759
-120.96
-179.826
-227.817
-262.729
-283.854
-292.034
-289.523
-279.633
-266.395
-1.84811
248.249
258.011
268.985
272.73
264.238
240.861
202.066
149.259
85.4998
15.0828
-56.9911
-125.592
-186.03
-234.585
-268.913
-288.319
-293.839
-288.127
-275.11
-259.607
-1.84811
233.075
244.768
258.14
264.238
257.818
236.158
198.741
147.047
84.235
14.713
-56.4088
-123.905
-183.011
-229.964
-262.421
-279.737
-283.074
-275.295
-260.621
-244.219
-1.84811
207.853
219.874
233.754
240.86
236.158
217.048
183.05
135.579
77.6406
13.4132
-52.2686
-114.469
-168.696
-211.415
-240.442
-255.222
-256.933
-248.391
-233.732
-217.988
-1.84811
171.902
182.725
195.271
202.066
198.741
183.05
154.576
114.543
65.5387
11.1619
-44.4279
-96.9855
-142.654
-178.403
-202.38
-214.144
-214.768
-206.759
-193.772
-180.229
-1.84811
125.954
134.277
143.908
149.259
147.047
135.579
114.543
84.8562
48.465
8.07098
-33.2009
-72.1621
-105.92
-132.206
-149.648
-157.947
-157.956
-151.622
-141.765
-131.776
-1.84811
71.9894
76.8567
82.4122
85.5002
84.2354
77.6409
65.539
48.4651
27.55
4.361
-19.2905
-41.5594
-60.7773
-75.6442
-85.3866
-89.8646
-89.6187
-85.8365
-80.2228
-74.8002
-1.84811
12.9585
13.8419
14.6903
15.0835
14.7137
13.4138
11.1623
8.07128
4.36115
0.327617
-3.69823
-7.39013
-10.4656
-12.7204
-14.0564
-14.5021
-14.2224
-13.5165
-12.7931
-12.5026
-1.84811
-47.5968
-50.7598
-54.6753
-56.9906
-56.4083
-52.2682
-44.4275
-33.2006
-19.2903
-3.69806
12.3907
27.7403
41.203
51.8512
59.086
62.7114
62.962
60.4723
56.1885
51.2902
-1.84811
-105.974
-112.788
-120.959
-125.592
-123.904
-114.468
-96.9853
-72.1619
-41.5591
-7.38979
27.7405
61.1272
90.2723
113.177
128.584
136.14
136.463
131.078
122.215
112.588
-1.84811
-158.747
-168.406
-179.826
-186.03
-183.011
-168.696
-142.654
-105.919
-60.7769
-10.4651
41.2033
90.2724
133.09
166.74
189.4
200.583
201.237
193.644
181.131
167.706
-1.84811
-203.161
-214.54
-227.817
-234.585
-229.964
-211.415
-178.403
-132.206
-75.6438
-12.7198
51.8516
113.177
166.74
208.936
237.517
251.897
253.262
244.459
229.619
213.692
-1.84811
-237.443
-249.213
-262.729
-268.913
-262.421
-240.442
-202.38
-149.648
-85.3861
-14.0558
59.0864
128.584
189.4
237.517
270.434
287.496
290.026
281.191
265.578
248.66
-1.84811
-260.976
-271.747
-283.853
-288.318
-279.737
-255.222
-214.144
-157.947
-89.8641
-14.5014
62.7118
136.14
200.583
251.897
287.496
306.698
310.848
303.177
288.371
271.988
-1.84811
-274.305
-282.788
-292.034
-293.838
-283.074
-256.932
-214.768
-157.956
-89.6182
-14.2218
62.9624
136.463
201.237
253.262
290.026
310.848
316.988
311.515
298.88
284.35
-1.84811
-278.936
-284.128
-289.523
-288.127
-275.294
-248.391
-206.759
-151.621
-85.836
-13.5159
60.4727
131.078
193.644
244.459
281.191
303.177
311.515
308.924
299.367
287.541
-1.84811
-276.893
-278.315
-279.632
-275.11
-260.62
-233.732
-193.771
-141.765
-80.2223
-12.7926
56.189
122.215
181.131
229.619
265.578
288.371
298.88
299.367
293.14
284.138
-1.84811
-270.14
-268.278
-266.395
-259.607
-244.219
-217.988
-180.229
-131.775
-74.7996
-12.502
51.2907
112.588
167.706
213.692
248.66
271.989
284.35
287.541
284.138
277.138
-1.84811
260.771
258.156
255.477
248.247
233.073
207.851
171.902
125.954
71.9893
12.9584
-47.5964
-105.973
-158.745
-203.159
-237.442
-260.975
-274.305
-278.936
-276.893
-270.14
260.772
244.981
239.802
233.89
224.523
209.003
185.48
153.224
112.681
65.3581
13.5969
-39.7394
-91.6261
-139.243
-180.307
-213.324
-237.733
-253.873
-262.725
-265.246
-260.773
258.158
239.802
241.191
240.557
234.947
221.52
198.384
164.9
121.74
70.7569
14.7289
-42.9907
-98.881
-149.669
-192.704
-226.256
-249.68
-263.409
-268.698
-266.952
-258.159
255.479
233.89
240.557
244.847
243.082
232.021
209.622
175.294
129.916
75.6805
15.8012
-45.8816
-105.355
-158.903
-203.525
-237.281
-259.492
-270.769
-272.773
-267.516
-255.48
248.249
224.522
234.948
243.083
244.583
235.822
214.598
180.336
134.066
78.2261
16.3419
-47.3995
-108.641
-163.359
-208.322
-241.464
-262.12
-271.081
-270.37
-262.49
-248.25
233.075
209.002
221.522
232.023
235.823
229.108
209.615
176.785
131.709
76.9114
16.0159
-46.6942
-106.774
-160.132
-203.495
-234.796
-253.425
-260.294
-257.636
-248.223
-233.076
207.853
185.479
198.385
209.625
214.601
209.617
192.508
162.752
121.405
70.8861
14.6448
-43.2504
-98.5891
-147.503
-186.913
-214.895
-230.924
-235.948
-232.199
-222.457
-207.854
171.903
153.223
164.901
175.297
180.34
176.788
162.753
137.79
102.825
59.9664
12.2111
-36.9162
-83.7754
-125.03
-158.036
-181.157
-193.982
-197.391
-193.399
-184.524
-171.904
125.954
112.68
121.741
129.918
134.069
131.711
121.407
102.826
76.6833
44.5934
8.84137
-27.892
-62.8458
-93.4973
-117.855
-134.704
-143.765
-145.757
-142.274
-135.327
-125.955
71.9892
65.3571
70.7561
75.68
78.2259
76.9113
70.8861
59.9663
44.5933
25.7421
4.78278
-16.6855
-37.025
-54.7477
-68.6898
-78.1554
-83.016
-83.7451
-81.3578
-77.1592
-71.9904
12.9579
13.5955
14.726
15.7966
16.3361
16.0098
14.6395
12.2073
8.8393
4.78201
0.362893
-4.04829
-8.08806
-11.4408
-13.8769
-15.2828
-15.6843
-15.2585
-14.3354
-13.3814
-12.9591
-47.5971
-39.7395
-42.9911
-45.8821
-47.4002
-46.6949
-43.2511
-36.9169
-27.8927
-16.6864
-4.04959
9.11312
21.8472
33.2577
42.6125
49.429
53.5304
55.0571
54.4028
51.9916
47.5959
-105.974
-91.6254
-98.8807
-105.355
-108.64
-106.773
-98.5872
-83.7738
-62.8452
-37.0258
-8.09109
21.8466
50.5822
76.0732
96.6763
111.347
119.768
122.388
120.296
114.778
105.973
-158.746
-139.242
-149.668
-158.902
-163.358
-160.13
-147.5
-125.027
-93.4955
-54.7483
-11.4455
33.2569
76.0735
113.97
144.517
166.183
178.535
182.286
179.131
171.113
158.745
-203.161
-180.305
-192.704
-203.525
-208.322
-203.493
-186.91
-158.033
-117.853
-68.69
-13.8828
42.6116
96.6773
144.518
183.099
210.517
226.245
231.2
227.539
217.9
203.16
-237.443
-213.322
-226.256
-237.282
-241.465
-234.796
-214.893
-181.154
-134.701
-78.1554
-15.2889
49.4281
111.348
166.186
210.519
242.204
260.649
266.895
263.39
253.166
237.442
-260.976
-237.731
-249.681
-259.495
-262.122
-253.426
-230.923
-193.98
-143.763
-83.0158
-15.6895
53.5297
119.77
178.538
226.248
260.651
281.12
288.733
286.045
276.276
260.975
-274.305
-253.872
-263.41
-270.772
-271.084
-260.297
-235.949
-197.391
-145.756
-83.745
-15.2621
55.0566
122.389
182.289
231.203
266.898
288.735
297.746
296.423
287.981
274.304
-278.936
-262.724
-268.699
-272.775
-270.372
-257.638
-232.2
-193.399
-142.274
-81.3577
-14.3373
54.4024
120.297
179.133
227.542
263.393
286.048
296.424
296.805
290.23
278.935
-276.893
-265.245
-266.952
-267.516
-262.491
-248.224
-222.458
-184.525
-135.328
-77.1594
-13.3821
51.9911
114.778
171.113
217.901
253.167
276.278
287.982
290.231
285.713
276.892
-270.14
-260.772
-258.158
-255.478
-248.248
-233.074
-207.853
-171.903
-125.955
-71.9905
-12.9596
47.5952
105.971
158.744
203.158
237.44
260.974
274.303
278.935
276.892
270.138
-1.84811
258.157
259.974
261.814
258.009
244.766
219.873
182.725
134.277
76.8567
13.8419
-50.7593
-112.786
-168.404
-214.538
-249.212
-271.746
-282.788
-284.129
-278.316
-268.278
258.158
239.802
241.191
240.558
234.949
221.523
198.386
164.902
121.741
70.7575
14.7292
-42.9907
-98.8815
-149.67
-192.705
-226.258
-249.682
-263.411
-268.7
-266.953
-258.159
259.976
241.191
258.826
270.715
273.431
263.766
239.715
200.895
148.62
85.7305
16.2528
-55.069
-123.315
-183.948
-233.304
-269
-290.163
-297.475
-292.956
-279.447
-259.977
261.816
240.557
270.715
293.097
303.205
297.221
272.921
230.092
170.589
98.092
17.6914
-64.6861
-142.939
-211.467
-265.774
-302.953
-321.995
-323.893
-311.486
-289.039
-261.817
258.011
234.948
273.432
303.206
318.85
315.995
292.209
247.376
183.713
105.477
18.4785
-70.558
-154.742
-227.774
-284.615
-322.038
-338.985
-336.722
-318.722
-290.268
-258.012
244.768
221.522
263.768
297.223
315.997
315.458
293.085
248.807
184.989
106.106
18.2307
-71.6391
-156.351
-229.38
-285.527
-321.489
-336.239
-331.209
-310.19
-278.953
-244.769
219.874
198.385
239.717
272.924
292.212
293.086
273.124
232.272
172.812
99.0346
16.7496
-67.362
-146.481
-214.397
-266.174
-298.697
-311.044
-304.668
-283.315
-252.666
-219.875
182.726
164.901
200.896
230.095
247.379
248.81
232.274
197.726
147.14
84.2294
14.016
-57.7274
-125.112
-182.78
-226.48
-253.546
-263.227
-256.843
-237.724
-210.906
-182.727
134.278
121.74
148.62
170.59
183.715
184.991
172.813
147.14
109.452
62.5385
10.1723
-43.3074
-93.4747
-136.303
-168.604
-188.392
-195.137
-189.888
-175.23
-155.058
-134.279
76.8565
70.7565
85.7296
98.0914
105.476
106.106
99.0343
84.2291
62.5382
35.5688
5.49653
-25.1744
-53.8898
-78.3272
-96.6544
-107.745
-111.332
-108.08
-99.5665
-88.1624
-76.8577
13.8412
14.7278
16.25
17.687
18.4731
18.2251
16.7446
14.0125
10.1702
5.49571
0.366149
-4.78353
-9.51322
-13.4298
-16.237
-17.778
-18.069
-17.3189
-15.9355
-14.5181
-13.8424
-50.7601
-42.9909
-55.0696
-64.687
-70.5589
-71.64
-67.3628
-57.7281
-43.3082
-25.1755
-4.78484
16.1823
35.9989
53.0769
66.1333
74.3296
77.3637
75.5083
69.5787
60.82
50.7589
-112.787
-98.8809
-123.315
-142.938
-154.741
-156.349
-146.479
-125.111
-93.4741
-53.8907
-9.51616
35.9982
78.9003
115.747
143.773
161.206
167.477
163.319
150.707
132.63
112.786
-168.406
-149.669
-183.947
-211.467
-227.773
-229.378
-214.394
-182.777
-136.301
-78.3279
-13.4343
53.0758
115.747
169.571
210.531
236.065
245.38
239.6
221.688
196.112
168.404
-214.54
-192.704
-233.305
-265.774
-284.614
-285.525
-266.171
-226.476
-168.601
-96.6548
-16.2425
66.1322
143.774
210.532
261.477
293.469
305.551
299.138
277.914
247.424
214.538
-249.213
-226.256
-269.001
-302.954
-322.039
-321.488
-298.695
-253.543
-188.389
-107.745
-17.7837
74.3286
161.208
236.068
293.47
329.957
344.482
338.62
316.452
284.117
249.212
-271.747
-249.68
-290.164
-321.997
-338.987
-336.24
-311.044
-263.225
-195.135
-111.332
-18.0738
77.3629
167.479
245.383
305.554
344.484
361.115
357.043
336.402
305.406
271.746
-282.789
-263.409
-297.476
-323.896
-336.725
-331.211
-304.669
-256.842
-189.887
-108.08
-17.3223
75.5077
163.321
239.603
299.141
338.623
357.045
355.892
339.025
312.257
282.787
-284.129
-268.698
-292.956
-311.487
-318.724
-310.193
-283.317
-237.724
-175.23
-99.5666
-15.9374
69.5782
150.708
221.691
277.917
316.456
336.404
339.026
327.64
307.259
284.127
-278.315
-266.952
-279.446
-289.039
-290.268
-278.954
-252.667
-210.906
-155.059
-88.1627
-14.5189
60.8195
132.63
196.113
247.426
284.119
305.408
312.258
307.26
294.312
278.314
-268.278
-258.158
-259.975
-261.815
-258.01
-244.767
-219.874
-182.726
-134.278
-76.8579
-13.843
50.7582
112.785
168.403
214.537
249.21
271.745
282.787
284.128
278.314
268.277
-1.84811
255.478
261.815
268.726
268.984
258.139
233.753
195.271
143.908
82.412
14.69
-54.6752
-120.959
-179.825
-227.816
-262.728
-283.853
-292.034
-289.523
-279.633
-266.395
255.479
233.89
240.557
244.848
243.084
232.024
209.625
175.296
129.917
75.6813
15.8016
-45.8814
-105.356
-158.904
-203.527
-237.283
-259.495
-270.771
-272.775
-267.517
-255.48
261.816
240.558
270.715
293.097
303.206
297.222
272.922
230.093
170.59
98.0925
17.6916
-64.6861
-142.939
-211.468
-265.775
-302.954
-321.996
-323.894
-311.487
-289.04
-261.817
268.727
244.848
293.098
330.454
350.865
349.648
324.281
274.829
203.958
116.617
19.4828
-79.7617
-173.274
-253.9
-315.923
-355.678
-371.945
-366.157
-342.345
-306.929
-268.728
268.985
243.083
303.207
350.865
378.709
381.311
355.873
302.623
224.782
128.159
20.5129
-89.2971
-192.268
-280.223
-346.656
-387.427
-401.225
-389.849
-358.218
-314.257
-268.986
258.14
232.023
297.224
349.649
381.312
386.43
362.085
308.574
229.346
130.549
20.3485
-91.9635
-196.973
-286.146
-352.715
-392.404
-403.918
-389.259
-353.778
-306.083
-258.141
233.754
209.625
272.923
324.283
355.875
362.086
340.107
290.238
215.802
122.704
18.7692
-87.1078
-185.923
-269.524
-331.457
-367.665
-376.97
-361.376
-326.143
-279.704
-233.755
195.272
175.296
230.095
274.831
302.625
308.576
290.239
247.868
184.325
104.703
15.7524
-74.8448
-159.31
-230.598
-283.139
-313.443
-320.534
-306.215
-275.137
-234.729
-195.273
143.909
129.917
170.59
203.96
224.783
229.347
215.803
184.325
137.036
77.7314
11.4526
-56.0516
-118.947
-171.945
-210.859
-233.082
-237.913
-226.767
-203.225
-172.987
-143.91
82.4122
75.6811
98.0923
116.617
128.159
130.549
122.704
104.702
77.7313
43.9352
6.17641
-32.2679
-68.0604
-98.1669
-120.188
-132.639
-135.157
-128.618
-115.173
-98.2176
-82.4134
14.6899
15.801
17.6903
19.4806
20.5101
20.3455
18.7666
15.7504
11.4514
6.17593
0.348039
-5.53292
-10.9493
-15.4278
-18.6022
-20.2699
-20.4376
-19.3486
-17.4944
-15.6132
-14.6911
-54.6753
-45.8813
-64.6861
-79.762
-89.2974
-91.9639
-87.1081
-74.8451
-56.0519
-32.2685
-5.53367
21.8278
47.45
69.1734
85.2645
94.5992
96.7909
92.2612
82.2504
68.7841
54.6741
-120.959
-105.355
-142.939
-173.273
-192.267
-196.971
-185.921
-159.308
-118.947
-68.0608
-10.9509
47.4495
102.094
148.362
182.549
202.28
206.808
197.187
176.297
148.765
120.958
-179.825
-158.903
-211.467
-253.899
-280.222
-286.143
-269.521
-230.596
-171.943
-98.1671
-15.4303
69.1727
148.363
215.459
265.097
293.851
300.668
287.137
257.525
218.643
179.824
-227.816
-203.526
-265.775
-315.923
-346.655
-352.713
-331.454
-283.136
-210.857
-120.188
-18.6052
85.2638
182.55
265.098
326.357
362.143
371.187
355.466
320.24
273.88
227.815
-262.728
-237.282
-302.954
-355.679
-387.427
-392.403
-367.664
-313.441
-233.08
-132.639
-20.2729
94.5987
202.281
293.853
362.144
402.583
413.791
397.948
360.829
311.598
262.727
-283.853
-259.494
-321.997
-371.947
-401.227
-403.918
-376.969
-320.532
-237.912
-135.157
-20.4401
96.7906
206.81
300.67
371.189
413.792
427.106
413.32
378.209
330.919
283.852
-292.034
-270.77
-323.895
-366.158
-389.85
-389.26
-361.376
-306.214
-226.766
-128.618
-19.3503
92.2611
197.188
287.14
355.469
397.95
413.321
403.594
374.064
333.105
292.033
-289.523
-272.774
-311.487
-342.345
-358.219
-353.779
-326.143
-275.137
-203.225
-115.172
-17.4951
82.2504
176.298
257.527
320.242
360.831
378.211
374.065
352.829
321.504
289.522
-279.633
-267.516
-289.039
-306.928
-314.257
-306.084
-279.704
-234.729
-172.986
-98.2174
-15.6134
68.7841
148.765
218.643
273.881
311.6
330.92
333.106
321.504
301.345
279.631
-266.395
-255.479
-261.816
-268.727
-268.985
-258.14
-233.754
-195.272
-143.909
-82.4132
-14.6912
54.674
120.958
179.824
227.814
262.727
283.852
292.033
289.522
279.632
266.394
-1.84811
248.249
258.011
268.985
272.73
264.237
240.86
202.065
149.259
85.4998
15.0829
-56.9909
-125.592
-186.03
-234.584
-268.913
-288.318
-293.839
-288.127
-275.11
-259.607
248.249
224.521
234.948
243.083
244.584
235.823
214.6
180.338
134.068
78.227
16.3423
-47.3992
-108.641
-163.36
-208.323
-241.465
-262.122
-271.083
-270.371
-262.491
-248.251
258.011
234.948
273.432
303.207
318.851
315.996
292.21
247.378
183.714
105.477
18.4789
-70.5577
-154.742
-227.775
-284.616
-322.039
-338.986
-336.724
-318.723
-290.269
-258.012
268.985
243.083
303.207
350.866
378.709
381.311
355.874
302.624
224.782
128.16
20.5132
-89.2969
-192.268
-280.223
-346.656
-387.427
-401.226
-389.849
-358.219
-314.257
-268.986
272.731
244.585
318.851
378.71
415.224
422.064
396.101
337.77
250.978
142.6
21.718
-101.366
-216.242
-313.493
-385.659
-428.028
-439.175
-421.326
-380.472
-326.364
-272.732
264.238
235.824
315.997
381.312
422.064
431.498
406.337
347.106
257.995
146.303
21.6261
-105.194
-223.23
-322.618
-395.568
-437.192
-446.066
-424.651
-379.443
-321.012
-264.24
240.861
214.6
292.211
355.875
396.102
406.338
383.43
327.896
243.773
138.073
20.0026
-100.045
-211.601
-305.224
-373.468
-411.677
-418.547
-396.527
-351.984
-295.255
-240.862
202.066
180.339
247.379
302.625
337.771
347.107
327.896
280.576
208.615
118.052
16.8214
-86.104
-181.675
-261.724
-319.81
-351.919
-356.962
-337.127
-298.032
-248.766
-202.068
149.26
134.069
183.715
224.784
250.979
257.996
243.773
208.615
155.082
87.6563
12.2432
-64.4539
-135.653
-195.22
-238.31
-261.912
-265.237
-249.992
-220.487
-183.674
-149.261
85.5007
78.2277
105.478
128.161
142.6
146.304
138.074
118.052
87.6564
49.3937
6.59099
-36.952
-77.3695
-111.149
-135.511
-148.737
-150.412
-141.579
-124.807
-104.209
-85.5019
15.0837
16.343
18.4793
20.5132
21.7177
21.6257
20.0023
16.8211
12.2431
6.59096
0.318203
-6.03367
-11.8944
-16.7349
-20.1393
-21.8723
-21.9331
-20.5897
-18.3933
-16.181
-15.0849
-56.9901
-47.3983
-70.5569
-89.2962
-101.366
-105.193
-100.045
-86.1036
-64.4536
-36.9519
-6.0338
25.5403
54.9733
79.7217
97.7516
107.754
109.298
102.928
90.2012
73.6872
56.9889
-125.591
-108.64
-154.741
-192.267
-216.241
-223.228
-211.6
-181.674
-135.653
-77.3692
-11.8947
54.9732
117.314
169.713
207.829
228.894
232.061
218.647
192.204
158.509
125.59
-186.029
-163.359
-227.774
-280.222
-313.492
-322.616
-305.223
-261.722
-195.219
-111.148
-16.7353
79.7216
169.713
245.424
300.58
331.179
336.022
317.077
279.581
231.993
186.028
-234.584
-208.322
-284.615
-346.655
-385.658
-395.567
-373.466
-319.808
-238.309
-135.51
-20.1398
97.7517
207.83
300.581
368.353
406.267
412.875
390.61
345.912
289.138
234.583
-268.912
-241.464
-322.038
-387.427
-428.028
-437.191
-411.676
-351.917
-261.91
-148.736
-21.8727
107.754
228.895
331.18
406.267
448.841
457.334
434.42
387.141
326.791
268.911
-288.318
-262.121
-338.986
-401.226
-439.175
-446.066
-418.546
-356.96
-265.236
-150.412
-21.9332
109.298
232.062
336.023
412.876
457.334
467.856
447.111
402.105
344.047
288.317
-293.838
-271.082
-336.723
-389.849
-421.325
-424.651
-396.526
-337.126
-249.991
-141.578
-20.5895
102.928
218.648
317.078
390.611
434.421
447.112
431.125
392.837
342.432
293.837
-288.127
-270.371
-318.722
-358.219
-380.472
-379.443
-351.984
-298.031
-220.486
-124.806
-18.3928
90.2019
192.205
279.582
345.913
387.142
402.105
392.837
364.627
325.896
288.126
-275.11
-262.49
-290.268
-314.257
-326.363
-321.011
-295.254
-248.765
-183.673
-104.208
-16.1803
73.688
158.51
231.994
289.139
326.792
344.047
342.432
325.896
300.655
275.109
-259.607
-248.25
-258.012
-268.986
-272.731
-264.239
-240.861
-202.067
-149.26
-85.501
-15.0841
56.9897
125.59
186.029
234.583
268.912
288.317
293.837
288.126
275.109
259.606
-1.84811
233.075
244.768
258.14
264.238
257.818
236.157
198.741
147.047
84.2347
14.7128
-56.409
-123.905
-183.011
-229.964
-262.421
-279.737
-283.074
-275.295
-260.621
-244.219
233.075
209.002
221.521
232.023
235.823
229.109
209.616
176.787
131.71
76.912
16.0161
-46.6938
-106.774
-160.132
-203.495
-234.797
-253.426
-260.295
-257.637
-248.224
-233.076
244.768
221.521
263.767
297.223
315.997
315.459
293.086
248.808
184.99
106.107
18.2311
-71.6386
-156.351
-229.38
-285.528
-321.49
-336.24
-331.21
-310.191
-278.954
-244.769
258.141
232.023
297.224
349.649
381.312
386.431
362.086
308.575
229.347
130.55
20.3489
-91.9632
-196.972
-286.146
-352.715
-392.404
-403.919
-389.26
-353.779
-306.084
-258.142
264.239
235.824
315.997
381.312
422.065
431.498
406.338
347.107
257.995
146.304
21.6263
-105.194
-223.229
-322.618
-395.569
-437.192
-446.067
-424.652
-379.444
-321.012
-264.24
257.819
229.109
315.46
386.431
431.498
443.45
418.851
358.323
266.363
150.735
21.5907
-109.635
-231.454
-333.513
-407.662
-448.811
-455.535
-430.535
-380.841
-317.898
-257.82
236.159
209.617
293.087
362.086
406.338
418.851
396.322
339.36
252.299
142.599
20.0056
-104.513
-219.94
-316.356
-385.958
-423.892
-428.846
-403.496
-354.724
-293.707
-236.16
198.742
176.788
248.809
308.576
347.107
358.323
339.36
290.733
216.163
122.068
16.844
-90.0406
-189.059
-271.629
-330.992
-362.958
-366.426
-343.78
-301.08
-248.144
-198.744