# vtk DataFile Version 2.0 
Visualization 
ASCII 
DATASET STRUCTURED_GRID 
DIMENSIONS 21 21 21
POINTS 9261 float
0 0 0
0.1 0 0
0.2 0 0
0.3 0 0
0.4 0 0
0.5 0 0
0.6 0 0
0.7 0 0
0.8 0 0
0.9 0 0
1 0 0
1.1 0 0
1.2 0 0
1.3 0 0
1.4 0 0
1.5 0 0
1.6 0 0
1.7 0 0
1.8 0 0
1.9 0 0
2 0 0
0 0.1 0
0.1 0.1 0
0.2 0.1 0
0.3 0.1 0
0.4 0.1 0
0.5 0.1 0
0.6 0.1 0
0.7 0.1 0
0.8 0.1 0
0.9 0.1 0
1 0.1 0
1.1 0.1 0
1.2 0.1 0
1.3 0.1 0
1.4 0.1 0
1.5 0.1 0
1.6 0.1 0
1.7 0.1 0
1.8 0.1 0
1.9 0.1 0
2 0.1 0
0 0.2 0
0.1 0.2 0
0.2 0.2 0
0.3 0.2 0
0.4 0.2 0
0.5 0.2 0
0.6 0.2 0
0.7 0.2 0
0.8 0.2 0
0.9 0.2 0
1 0.2 0
1.1 0.2 0
1.2 0.2 0
1.3 0.2 0
1.4 0.2 0
1.5 0.2 0
1.6 0.2 0
1.7 0.2 0
1.8 0.2 0
1.9 0.2 0
2 0.2 0
0 0.3 0
0.1 0.3 0
0.2 0.3 0
0.3 0.3 0
0.4 0.3 0
0.5 0.3 0
0.6 0.3 0
0.7 0.3 0
0.8 0.3 0
0.9 0.3 0
1 0.3 0
1.1 0.3 0
1.2 0.3 0
1.3 0.3 0
1.4 0.3 0
1.5 0.3 0
1.6 0.3 0
1.7 0.3 0
1.8 0.3 0
1.9 0.3 0
2 0.3 0
0 0.4 0
0.1 0.4 0
0.2 0.4 0
0.3 0.4 0
0.4 0.4 0
0.5 0.4 0
0.6 0.4 0
0.7 0.4 0
0.8 0.4 0
0.9 0.4 0
1 0.4 0
1.1 0.4 0
1.2 0.4 0
1.3 0.4 0
1.4 0.4 0
1.5 0.4 0
1.6 0.4 0
1.7 0.4 0
1.8 0.4 0
1.9 0.4 0
2 0.4 0
0 0.5 0
0.1 0.5 0
0.2 0.5 0
0.3 0.5 0
0.4 0.5 0
0.5 0.5 0
0.6 0.5 0
0.7 0.5 0
0.8 0.5 0
0.9 0.5 0
1 0.5 0
1.1 0.5 0
1.2 0.5 0
1.3 0.5 0
1.4 0.5 0
1.5 0.5 0
1.6 0.5 0
1.7 0.5 0
1.8 0.5 0
1.9 0.5 0
2 0.5 0
0 0.6 0
0.1 0.6 0
0.2 0.6 0
0.3 0.6 0
0.4 0.6 0
0.5 0.6 0
0.6 0.6 0
0.7 0.6 0
0.8 0.6 0
0.9 0.6 0
1 0.6 0
1.1 0.6 0
1.2 0.6 0
1.3 0.6 0
1.4 0.6 0
1.5 0.6 0
1.6 0.6 0
1.7 0.6 0
1.8 0.6 0
1.9 0.6 0
2 0.6 0
0 0.7 0
0.1 0.7 0
0.2 0.7 0
0.3 0.7 0
0.4 0.7 0
0.5 0.7 0
0.6 0.7 0
0.7 0.7 0
0.8 0.7 0
0.9 0.7 0
1 0.7 0
1.1 0.7 0
1.2 0.7 0
1.3 0.7 0
1.4 0.7 0
1.5 0.7 0
1.6 0.7 0
1.7 0.7 0
1.8 0.7 0
1.9 0.7 0
2 0.7 0
0 0.8 0
0.1 0.8 0
0.2 0.8 0
0.3 0.8 0
0.4 0.8 0
0.5 0.8 0
0.6 0.8 0
0.7 0.8 0
0.8 0.8 0
0.9 0.8 0
1 0.8 0
1.1 0.8 0
1.2 0.8 0
1.3 0.8 0
1.4 0.8 0
1.5 0.8 0
1.6 0.8 0
1.7 0.8 0
1.8 0.8 0
1.9 0.8 0
2 0.8 0
0 0.9 0
0.1 0.9 0
0.2 0.9 0
0.3 0.9 0
0.4 0.9 0
0.5 0.9 0
0.6 0.9 0
0.7 0.9 0
0.8 0.9 0
0.9 0.9 0
1 0.9 0
1.1 0.9 0
1.2 0.9 0
1.3 0.9 0
1.4 0.9 0
1.5 0.9 0
1.6 0.9 0
1.7 0.9 0
1.8 0.9 0
1.9 0.9 0
2 0.9 0
0 1 0
0.1 1 0
0.2 1 0
0.3 1 0
0.4 1 0
0.5 1 0
0.6 1 0
0.7 1 0
0.8 1 0
0.9 1 0
1 1 0
1.1 1 0
1.2 1 0
1.3 1 0
1.4 1 0
1.5 1 0
1.6 1 0
1.7 1 0
1.8 1 0
1.9 1 0
2 1 0
0 1.1 0
0.1 1.1 0
0.2 1.1 0
0.3 1.1 0
0.4 1.1 0
0.5 1.1 0
0.6 1.1 0
0.7 1.1 0
0.8 1.1 0
0.9 1.1 0
1 1.1 0
1.1 1.1 0
1.2 1.1 0
1.3 1.1 0
1.4 1.1 0
1.5 1.1 0
1.6 1.1 0
1.7 1.1 0
1.8 1.1 0
1.9 1.1 0
2 1.1 0
0 1.2 0
0.1 1.2 0
0.2 1.2 0
0.3 1.2 0
0.4 1.2 0
0.5 1.2 0
0.6 1.2 0
0.7 1.2 0
0.8 1.2 0
0.9 1.2 0
1 1.2 0
1.1 1.2 0
1.2 1.2 0
1.3 1.2 0
1.4 1.2 0
1.5 1.2 0
1.6 1.2 0
1.7 1.2 0
1.8 1.2 0
1.9 1.2 0
2 1.2 0
0 1.3 0
0.1 1.3 0
0.2 1.3 0
0.3 1.3 0
0.4 1.3 0
0.5 1.3 0
0.6 1.3 0
0.7 1.3 0
0.8 1.3 0
0.9 1.3 0
1 1.3 0
1.1 1.3 0
1.2 1.3 0
1.3 1.3 0
1.4 1.3 0
1.5 1.3 0
1.6 1.3 0
1.7 1.3 0
1.8 1.3 0
1.9 1.3 0
2 1.3 0
0 1.4 0
0.1 1.4 0
0.2 1.4 0
0.3 1.4 0
0.4 1.4 0
0.5 1.4 0
0.6 1.4 0
0.7 1.4 0
0.8 1.4 0
0.9 1.4 0
1 1.4 0
1.1 1.4 0
1.2 1.4 0
1.3 1.4 0
1.4 1.4 0
1.5 1.4 0
1.6 1.4 0
1.7 1.4 0
1.8 1.4 0
1.9 1.4 0
2 1.4 0
0 1.5 0
0.1 1.5 0
0.2 1.5 0
0.3 1.5 0
0.4 1.5 0
0.5 1.5 0
0.6 1.5 0
0.7 1.5 0
0.8 1.5 0
0.9 1.5 0
1 1.5 0
1.1 1.5 0
1.2 1.5 0
1.3 1.5 0
1.4 1.5 0
1.5 1.5 0
1.6 1.5 0
1.7 1.5 0
1.8 1.5 0
1.9 1.5 0
2 1.5 0
0 1.6 0
0.1 1.6 0
0.2 1.6 0
0.3 1.6 0
0.4 1.6 0
0.5 1.6 0
0.6 1.6 0
0.7 1.6 0
0.8 1.6 0
0.9 1.6 0
1 1.6 0
1.1 1.6 0
1.2 1.6 0
1.3 1.6 0
1.4 1.6 0
1.5 1.6 0
1.6 1.6 0
1.7 1.6 0
1.8 1.6 0
1.9 1.6 0
2 1.6 0
0 1.7 0
0.1 1.7 0
0.2 1.7 0
0.3 1.7 0
0.4 1.7 0
0.5 1.7 0
0.6 1.7 0
0.7 1.7 0
0.8 1.7 0
0.9 1.7 0
1 1.7 0
1.1 1.7 0
1.2 1.7 0
1.3 1.7 0
1.4 1.7 0
1.5 1.7 0
1.6 1.7 0
1.7 1.7 0
1.8 1.7 0
1.9 1.7 0
2 1.7 0
0 1.8 0
0.1 1.8 0
0.2 1.8 0
0.3 1.8 0
0.4 1.8 0
0.5 1.8 0
0.6 1.8 0
0.7 1.8 0
0.8 1.8 0
0.9 1.8 0
1 1.8 0
1.1 1.8 0
1.2 1.8 0
1.3 1.8 0
1.4 1.8 0
1.5 1.8 0
1.6 1.8 0
1.7 1.8 0
1.8 1.8 0
1.9 1.8 0
2 1.8 0
0 1.9 0
0.1 1.9 0
0.2 1.9 0
0.3 1.9 0
0.4 1.9 0
0.5 1.9 0
0.6 1.9 0
0.7 1.9 0
0.8 1.9 0
0.9 1.9 0
1 1.9 0
1.1 1.9 0
1.2 1.9 0
1.3 1.9 0
1.4 1.9 0
1.5 1.9 0
1.6 1.9 0
1.7 1.9 0
1.8 1.9 0
1.9 1.9 0
2 1.9 0
0 2 0
0.1 2 0
0.2 2 0
0.3 2 0
0.4 2 0
0.5 2 0
0.6 2 0
0.7 2 0
0.8 2 0
0.9 2 0
1 2 0
1.1 2 0
1.2 2 0
1.3 2 0
1.4 2 0
1.5 2 0
1.6 2 0
1.7 2 0
1.8 2 0
1.9 2 0
2 2 0
0 0 0.1
0.1 0 0.1
0.2 0 0.1
0.3 0 0.1
0.4 0 0.1
0.5 0 0.1
0.6 0 0.1
0.7 0 0.1
0.8 0 0.1
0.9 0 0.1
1 0 0.1
1.1 0 0.1
1.2 0 0.1
1.3 0 0.1
1.4 0 0.1
1.5 0 0.1
1.6 0 0.1
1.7 0 0.1
1.8 0 0.1
1.9 0 0.1
2 0 0.1
0 0.1 0.1
0.1 0.1 0.1
0.2 0.1 0.1
0.3 0.1 0.1
0.4 0.1 0.1
0.5 0.1 0.1
0.6 0.1 0.1
0.7 0.1 0.1
0.8 0.1 0.1
0.9 0.1 0.1
1 0.1 0.1
1.1 0.1 0.1
1.2 0.1 0.1
1.3 0.1 0.1
1.4 0.1 0.1
1.5 0.1 0.1
1.6 0.1 0.1
1.7 0.1 0.1
1.8 0.1 0.1
1.9 0.1 0.1
2 0.1 0.1
0 0.2 0.1
0.1 0.2 0.1
0.2 0.2 0.1
0.3 0.2 0.1
0.4 0.2 0.1
0.5 0.2 0.1
0.6 0.2 0.1
0.7 0.2 0.1
0.8 0.2 0.1
0.9 0.2 0.1
1 0.2 0.1
1.1 0.2 0.1
1.2 0.2 0.1
1.3 0.2 0.1
1.4 0.2 0.1
1.5 0.2 0.1
1.6 0.2 0.1
1.7 0.2 0.1
1.8 0.2 0.1
1.9 0.2 0.1
2 0.2 0.1
0 0.3 0.1
0.1 0.3 0.1
0.2 0.3 0.1
0.3 0.3 0.1
0.4 0.3 0.1
0.5 0.3 0.1
0.6 0.3 0.1
0.7 0.3 0.1
0.8 0.3 0.1
0.9 0.3 0.1
1 0.3 0.1
1.1 0.3 0.1
1.2 0.3 0.1
1.3 0.3 0.1
1.4 0.3 0.1
1.5 0.3 0.1
1.6 0.3 0.1
1.7 0.3 0.1
1.8 0.3 0.1
1.9 0.3 0.1
2 0.3 0.1
0 0.4 0.1
0.1 0.4 0.1
0.2 0.4 0.1
0.3 0.4 0.1
0.4 0.4 0.1
0.5 0.4 0.1
0.6 0.4 0.1
0.7 0.4 0.1
0.8 0.4 0.1
0.9 0.4 0.1
1 0.4 0.1
1.1 0.4 0.1
1.2 0.4 0.1
1.3 0.4 0.1
1.4 0.4 0.1
1.5 0.4 0.1
1.6 0.4 0.1
1.7 0.4 0.1
1.8 0.4 0.1
1.9 0.4 0.1
2 0.4 0.1
0 0.5 0.1
0.1 0.5 0.1
0.2 0.5 0.1
0.3 0.5 0.1
0.4 0.5 0.1
0.5 0.5 0.1
0.6 0.5 0.1
0.7 0.5 0.1
0.8 0.5 0.1
0.9 0.5 0.1
1 0.5 0.1
1.1 0.5 0.1
1.2 0.5 0.1
1.3 0.5 0.1
1.4 0.5 0.1
1.5 0.5 0.1
1.6 0.5 0.1
1.7 0.5 0.1
1.8 0.5 0.1
1.9 0.5 0.1
2 0.5 0.1
0 0.6 0.1
0.1 0.6 0.1
0.2 0.6 0.1
0.3 0.6 0.1
0.4 0.6 0.1
0.5 0.6 0.1
0.6 0.6 0.1
0.7 0.6 0.1
0.8 0.6 0.1
0.9 0.6 0.1
1 0.6 0.1
1.1 0.6 0.1
1.2 0.6 0.1
1.3 0.6 0.1
1.4 0.6 0.1
1.5 0.6 0.1
1.6 0.6 0.1
1.7 0.6 0.1
1.8 0.6 0.1
1.9 0.6 0.1
2 0.6 0.1
0 0.7 0.1
0.1 0.7 0.1
0.2 0.7 0.1
0.3 0.7 0.1
0.4 0.7 0.1
0.5 0.7 0.1
0.6 0.7 0.1
0.7 0.7 0.1
0.8 0.7 0.1
0.9 0.7 0.1
1 0.7 0.1
1.1 0.7 0.1
1.2 0.7 0.1
1.3 0.7 0.1
1.4 0.7 0.1
1.5 0.7 0.1
1.6 0.7 0.1
1.7 0.7 0.1
1.8 0.7 0.1
1.9 0.7 0.1
2 0.7 0.1
0 0.8 0.1
0.1 0.8 0.1
0.2 0.8 0.1
0.3 0.8 0.1
0.4 0.8 0.1
0.5 0.8 0.1
0.6 0.8 0.1
0.7 0.8 0.1
0.8 0.8 0.1
0.9 0.8 0.1
1 0.8 0.1
1.1 0.8 0.1
1.2 0.8 0.1
1.3 0.8 0.1
1.4 0.8 0.1
1.5 0.8 0.1
1.6 0.8 0.1
1.7 0.8 0.1
1.8 0.8 0.1
1.9 0.8 0.1
2 0.8 0.1
0 0.9 0.1
0.1 0.9 0.1
0.2 0.9 0.1
0.3 0.9 0.1
0.4 0.9 0.1
0.5 0.9 0.1
0.6 0.9 0.1
0.7 0.9 0.1
0.8 0.9 0.1
0.9 0.9 0.1
1 0.9 0.1
1.1 0.9 0.1
1.2 0.9 0.1
1.3 0.9 0.1
1.4 0.9 0.1
1.5 0.9 0.1
1.6 0.9 0.1
1.7 0.9 0.1
1.8 0.9 0.1
1.9 0.9 0.1
2 0.9 0.1
0 1 0.1
0.1 1 0.1
0.2 1 0.1
0.3 1 0.1
0.4 1 0.1
0.5 1 0.1
0.6 1 0.1
0.7 1 0.1
0.8 1 0.1
0.9 1 0.1
1 1 0.1
1.1 1 0.1
1.2 1 0.1
1.3 1 0.1
1.4 1 0.1
1.5 1 0.1
1.6 1 0.1
1.7 1 0.1
1.8 1 0.1
1.9 1 0.1
2 1 0.1
0 1.1 0.1
0.1 1.1 0.1
0.2 1.1 0.1
0.3 1.1 0.1
0.4 1.1 0.1
0.5 1.1 0.1
0.6 1.1 0.1
0.7 1.1 0.1
0.8 1.1 0.1
0.9 1.1 0.1
1 1.1 0.1
1.1 1.1 0.1
1.2 1.1 0.1
1.3 1.1 0.1
1.4 1.1 0.1
1.5 1.1 0.1
1.6 1.1 0.1
1.7 1.1 0.1
1.8 1.1 0.1
1.9 1.1 0.1
2 1.1 0.1
0 1.2 0.1
0.1 1.2 0.1
0.2 1.2 0.1
0.3 1.2 0.1
0.4 1.2 0.1
0.5 1.2 0.1
0.6 1.2 0.1
0.7 1.2 0.1
0.8 1.2 0.1
0.9 1.2 0.1
1 1.2 0.1
1.1 1.2 0.1
1.2 1.2 0.1
1.3 1.2 0.1
1.4 1.2 0.1
1.5 1.2 0.1
1.6 1.2 0.1
1.7 1.2 0.1
1.8 1.2 0.1
1.9 1.2 0.1
2 1.2 0.1
0 1.3 0.1
0.1 1.3 0.1
0.2 1.3 0.1
0.3 1.3 0.1
0.4 1.3 0.1
0.5 1.3 0.1
0.6 1.3 0.1
0.7 1.3 0.1
0.8 1.3 0.1
0.9 1.3 0.1
1 1.3 0.1
1.1 1.3 0.1
1.2 1.3 0.1
1.3 1.3 0.1
1.4 1.3 0.1
1.5 1.3 0.1
1.6 1.3 0.1
1.7 1.3 0.1
1.8 1.3 0.1
1.9 1.3 0.1
2 1.3 0.1
0 1.4 0.1
0.1 1.4 0.1
0.2 1.4 0.1
0.3 1.4 0.1
0.4 1.4 0.1
0.5 1.4 0.1
0.6 1.4 0.1
0.7 1.4 0.1
0.8 1.4 0.1
0.9 1.4 0.1
1 1.4 0.1
1.1 1.4 0.1
1.2 1.4 0.1
1.3 1.4 0.1
1.4 1.4 0.1
1.5 1.4 0.1
1.6 1.4 0.1
1.7 1.4 0.1
1.8 1.4 0.1
1.9 1.4 0.1
2 1.4 0.1
0 1.5 0.1
0.1 1.5 0.1
0.2 1.5 0.1
0.3 1.5 0.1
0.4 1.5 0.1
0.5 1.5 0.1
0.6 1.5 0.1
0.7 1.5 0.1
0.8 1.5 0.1
0.9 1.5 0.1
1 1.5 0.1
1.1 1.5 0.1
1.2 1.5 0.1
1.3 1.5 0.1
1.4 1.5 0.1
1.5 1.5 0.1
1.6 1.5 0.1
1.7 1.5 0.1
1.8 1.5 0.1
1.9 1.5 0.1
2 1.5 0.1
0 1.6 0.1
0.1 1.6 0.1
0.2 1.6 0.1
0.3 1.6 0.1
0.4 1.6 0.1
0.5 1.6 0.1
0.6 1.6 0.1
0.7 1.6 0.1
0.8 1.6 0.1
0.9 1.6 0.1
1 1.6 0.1
1.1 1.6 0.1
1.2 1.6 0.1
1.3 1.6 0.1
1.4 1.6 0.1
1.5 1.6 0.1
1.6 1.6 0.1
1.7 1.6 0.1
1.8 1.6 0.1
1.9 1.6 0.1
2 1.6 0.1
0 1.7 0.1
0.1 1.7 0.1
0.2 1.7 0.1
0.3 1.7 0.1
0.4 1.7 0.1
0.5 1.7 0.1
0.6 1.7 0.1
0.7 1.7 0.1
0.8 1.7 0.1
0.9 1.7 0.1
1 1.7 0.1
1.1 1.7 0.1
1.2 1.7 0.1
1.3 1.7 0.1
1.4 1.7 0.1
1.5 1.7 0.1
1.6 1.7 0.1
1.7 1.7 0.1
1.8 1.7 0.1
1.9 1.7 0.1
2 1.7 0.1
0 1.8 0.1
0.1 1.8 0.1
0.2 1.8 0.1
0.3 1.8 0.1
0.4 1.8 0.1
0.5 1.8 0.1
0.6 1.8 0.1
0.7 1.8 0.1
0.8 1.8 0.1
0.9 1.8 0.1
1 1.8 0.1
1.1 1.8 0.1
1.2 1.8 0.1
1.3 1.8 0.1
1.4 1.8 0.1
1.5 1.8 0.1
1.6 1.8 0.1
1.7 1.8 0.1
1.8 1.8 0.1
1.9 1.8 0.1
2 1.8 0.1
0 1.9 0.1
0.1 1.9 0.1
0.2 1.9 0.1
0.3 1.9 0.1
0.4 1.9 0.1
0.5 1.9 0.1
0.6 1.9 0.1
0.7 1.9 0.1
0.8 1.9 0.1
0.9 1.9 0.1
1 1.9 0.1
1.1 1.9 0.1
1.2 1.9 0.1
1.3 1.9 0.1
1.4 1.9 0.1
1.5 1.9 0.1
1.6 1.9 0.1
1.7 1.9 0.1
1.8 1.9 0.1
1.9 1.9 0.1
2 1.9 0.1
0 2 0.1
0.1 2 0.1
0.2 2 0.1
0.3 2 0.1
0.4 2 0.1
0.5 2 0.1
0.6 2 0.1
0.7 2 0.1
0.8 2 0.1
0.9 2 0.1
1 2 0.1
1.1 2 0.1
1.2 2 0.1
1.3 2 0.1
1.4 2 0.1
1.5 2 0.1
1.6 2 0.1
1.7 2 0.1
1.8 2 0.1
1.9 2 0.1
2 2 0.1
0 0 0.2
0.1 0 0.2
0.2 0 0.2
0.3 0 0.2
0.4 0 0.2
0.5 0 0.2
0.6 0 0.2
0.7 0 0.2
0.8 0 0.2
0.9 0 0.2
1 0 0.2
1.1 0 0.2
1.2 0 0.2
1.3 0 0.2
1.4 0 0.2
1.5 0 0.2
1.6 0 0.2
1.7 0 0.2
1.8 0 0.2
1.9 0 0.2
2 0 0.2
0 0.1 0.2
0.1 0.1 0.2
0.2 0.1 0.2
0.3 0.1 0.2
0.4 0.1 0.2
0.5 0.1 0.2
0.6 0.1 0.2
0.7 0.1 0.2
0.8 0.1 0.2
0.9 0.1 0.2
1 0.1 0.2
1.1 0.1 0.2
1.2 0.1 0.2
1.3 0.1 0.2
1.4 0.1 0.2
1.5 0.1 0.2
1.6 0.1 0.2
1.7 0.1 0.2
1.8 0.1 0.2
1.9 0.1 0.2
2 0.1 0.2
0 0.2 0.2
0.1 0.2 0.2
0.2 0.2 0.2
0.3 0.2 0.2
0.4 0.2 0.2
0.5 0.2 0.2
0.6 0.2 0.2
0.7 0.2 0.2
0.8 0.2 0.2
0.9 0.2 0.2
1 0.2 0.2
1.1 0.2 0.2
1.2 0.2 0.2
1.3 0.2 0.2
1.4 0.2 0.2
1.5 0.2 0.2
1.6 0.2 0.2
1.7 0.2 0.2
1.8 0.2 0.2
1.9 0.2 0.2
[...]
POINT_DATA 9261
VECTORS velocity double 
2.99952e-32 2.99952e-32 -0.0291689
0.00775541 -3.78437e-17 0.0243614
0.0117251 -7.19829e-17 0.0346458
0.0341454 -9.9076e-17 0.0452891
0.0811906 -1.16471e-16 0.0530005
0.149892 -1.22465e-16 0.0561492
0.232275 -1.16471e-16 0.0540007
0.318026 -9.9076e-17 0.0465533
0.396412 -7.19829e-17 0.0344395
0.457779 -3.78437e-17 0.0188125
0.494693 -1.49976e-32 0.00120846
0.502753 3.78437e-17 -0.0166169
0.481035 7.19829e-17 -0.0328749
0.432126 9.9076e-17 -0.045953
0.361762 1.16471e-16 -0.0546038
0.278083 1.22465e-16 -0.0581222
0.190546 1.16471e-16 -0.0564984
0.10857 9.9076e-17 -0.0505482
0.040106 7.19829e-17 -0.0420295
-0.00911546 3.78437e-17 -0.033709
-0.0337211 2.99952e-32 -0.0291689
-3.78437e-17 0.00775523 0.0243575
-0.0147116 -0.0147113 0.0734306
-0.0217883 0.00024015 0.138474
-0.043401 0.0162426 0.190873
-0.0861825 0.0286742 0.224013
-0.148185 0.0360819 0.234818
-0.222633 0.0380879 0.222501
-0.300394 0.0349331 0.188441
-0.371799 0.0273481 0.136064
-0.428065 0.0164591 0.0705307
-0.462372 0.00368073 -0.00174177
-0.470652 -0.00940755 -0.0737005
-0.452009 -0.0212383 -0.138342
-0.408741 -0.0304266 -0.189371
-0.345992 -0.0358848 -0.221777
-0.271049 -0.0369259 -0.232258
-0.192283 -0.0333512 -0.219449
-0.117762 -0.0255273 -0.18393
-0.053577 -0.0144849 -0.127976
-0.00243077 -0.00215647 -0.055269
0.0338324 0.00775523 0.0243575
-7.19829e-17 0.0117247 0.034639
0.000239935 -0.0217879 0.138472
0.00148648 0.00148672 0.25184
-0.0197233 0.0281513 0.344774
-0.0674776 0.0496857 0.404186
-0.137463 0.0628238 0.423846
-0.221092 0.0665004 0.40195
-0.307835 0.0609738 0.340772
-0.386933 0.0475006 0.246367
-0.448784 0.028109 0.127997
-0.486014 0.00537502 -0.0027526
-0.494303 -0.017816 -0.133107
-0.472832 -0.0386047 -0.250341
-0.424247 -0.054482 -0.342994
-0.354287 -0.0635107 -0.401959
-0.271035 -0.0645353 -0.421306
-0.183834 -0.0573692 -0.398748
-0.101905 -0.042973 -0.335677
-0.0328149 -0.0236569 -0.236666
0.0182312 -0.00336465 -0.108385
0.0437072 0.0117247 0.034639
-9.9076e-17 0.034145 0.04528
0.0162422 -0.0434006 0.190869
0.028151 -0.0197232 0.344776
0.00871568 0.00871572 0.471294
-0.0442302 0.0328212 0.552384
-0.123725 0.0487768 0.579334
-0.218825 0.0552353 0.54954
-0.317056 0.0523645 0.466023
-0.406116 0.0414352 0.337009
-0.475238 0.0245375 0.175145
-0.516256 0.00432586 -0.00372363
-0.52449 -0.0162313 -0.18211
-0.499208 -0.0342092 -0.342581
-0.443546 -0.0470718 -0.469426
-0.364082 -0.052901 -0.550174
-0.27006 -0.0506252 -0.576729
-0.17228 -0.0402337 -0.546025
-0.0817176 -0.0229858 -0.460074
-0.00800289 -0.00161816 -0.325221
0.0412779 0.019485 -0.150448
0.0557005 0.034145 0.04528
-1.16471e-16 0.0811901 0.0529906
0.0286736 -0.0861821 0.224008
0.0496851 -0.0674775 0.40419
0.032821 -0.0442304 0.552389
-0.0230096 -0.0230098 0.647449
-0.10891 -0.00661689 0.679105
-0.212091 0.00398761 0.644249
-0.318533 0.00893088 0.546388
-0.414723 0.00906659 0.39515
-0.488997 0.00574288 0.205356
-0.532604 0.000622027 -0.00440389
-0.540611 -0.00446874 -0.213617
-0.512381 -0.00776726 -0.401828
-0.451448 -0.00779711 -0.550595
-0.365058 -0.00349762 -0.645288
-0.263384 0.00562518 -0.676422
-0.158402 0.0193398 -0.640423
-0.0624868 0.0365179 -0.539686
0.0131879 0.0549659 -0.381657
0.0595841 0.0713354 -0.176777
0.0648655 0.0811901 0.0529906
-1.22465e-16 0.149891 0.0561403
0.0360811 -0.148184 0.234811
0.062823 -0.137463 0.423852
0.0487764 -0.123725 0.579344
-0.00661681 -0.108911 0.679112
-0.0935597 -0.0935601 0.712373
-0.198453 -0.0776319 0.675849
-0.306673 -0.0609171 0.57321
-0.404304 -0.0432509 0.414549
-0.479447 -0.0246053 0.215421
-0.523236 -0.00510477 -0.00466512
-0.530735 0.0150167 -0.22418
-0.501401 0.035433 -0.421654
-0.43893 0.0557466 -0.577734
-0.350814 0.0755422 -0.677064
-0.247558 0.0943921 -0.709698
-0.141579 0.111815 -0.671894
-0.0458179 0.127183 -0.566168
0.0279271 0.139582 -0.400323
0.0701041 0.147704 -0.185249
0.0686038 0.149891 0.0561403
-1.16471e-16 0.232275 0.0539943
0.0380871 -0.222632 0.222493
0.0664994 -0.221092 0.401957
0.0552345 -0.218824 0.549553
0.00398743 -0.212091 0.644262
-0.0776317 -0.198453 0.675857
-0.176464 -0.176464 0.641228
-0.278487 -0.145716 0.543854
-0.370445 -0.106852 0.393314
-0.441069 -0.0614737 0.204372
-0.482006 -0.0119328 -0.00445733
-0.488642 0.0389564 -0.212742
-0.460519 0.0882528 -0.400106
-0.401198 0.133218 -0.548185
-0.317846 0.171609 -0.642411
-0.220508 0.201893 -0.673345
-0.121089 0.223359 -0.637439
-0.0320394 0.236111 -0.537075
0.0352533 0.240947 -0.379637
0.0716218 0.239132 -0.175405
0.0657895 0.232275 0.0539943
-9.9076e-17 0.318025 0.0465504
0.0349324 -0.300393 0.188434
0.0609728 -0.307834 0.340777
0.0523637 -0.317055 0.466035
0.00893045 -0.318533 0.546403
-0.0609171 -0.306673 0.573222
-0.145716 -0.278487 0.54386
-0.233294 -0.233294 0.461272
-0.312185 -0.172541 0.333587
-0.372667 -0.0995027 0.173332
-0.407572 -0.0188453 -0.00378887
-0.412955 0.0639307 -0.180442
-0.388449 0.143152 -0.339345
-0.337161 0.213628 -0.464924
-0.265323 0.271208 -0.544826
-0.18168 0.313218 -0.571045
-0.096606 0.338749 -0.540568
-0.0209725 0.348734 -0.455406
0.0352738 0.345809 -0.321797
0.0641884 0.333933 -0.148405
0.0563658 0.318025 0.0465504
-7.19829e-17 0.396412 0.0344399
0.0273476 -0.371798 0.136057
0.0474998 -0.386932 0.246368
0.0414344 -0.406115 0.337016
0.00906606 -0.414721 0.39516
-0.0432511 -0.404303 0.414559
-0.106853 -0.370444 0.393322
-0.172541 -0.312184 0.33359
-0.231663 -0.231662 0.24125
-0.276895 -0.133646 0.125362
-0.302862 -0.0248809 -0.00271672
-0.306617 0.0867168 -0.130449
-0.287902 0.193003 -0.245341
-0.249085 0.286553 -0.336135
-0.19491 0.361473 -0.393902
-0.132033 0.414061 -0.412855
-0.0683636 0.443245 -0.390809
-0.0121939 0.450751 -0.329206
0.0288865 0.440925 -0.232526
0.0488837 0.420185 -0.106966
0.0411254 0.396412 0.0344399
-3.78437e-17 0.457779 0.0188155
0.0164589 -0.428064 0.070524
0.0281087 -0.448783 0.127992
0.0245372 -0.475237 0.175141
0.00574249 -0.488995 0.205354
-0.0246057 -0.479445 0.215419
-0.0614743 -0.441067 0.204371
-0.0995034 -0.372666 0.17333
-0.133647 -0.276894 0.125361
-0.159648 -0.159646 0.0651709
-0.174397 -0.0292462 -0.00133893
-0.176214 0.104546 -0.0676569
-0.164979 0.231691 -0.127298
-0.142112 0.343031 -0.174426
-0.110428 0.431314 -0.204412
-0.0738726 0.492039 -0.214254
-0.0371333 0.524028 -0.202814
-0.00513401 0.529649 -0.17082
0.0176149 0.514614 -0.120557
0.0276221 0.48727 -0.0551495
0.0215372 0.457779 0.0188155
-1.49976e-32 0.494693 0.00121302
0.00368095 -0.462372 -0.00175027
0.0053753 -0.486014 -0.0027684
0.00432602 -0.516256 -0.00374731
0.000621934 -0.532604 -0.00443302
-0.00510519 -0.523236 -0.0046952
-0.0119336 -0.482005 -0.00448347
-0.0188462 -0.407572 -0.00380763
-0.024882 -0.302861 -0.00272727
-0.0292474 -0.174396 -0.00134301
-0.0313981 -0.0313968 0.000213167
-0.0310819 0.115318 0.0017921
-0.0283556 0.254605 0.00323313
-0.0235727 0.376292 0.00438178
-0.0173531 0.472332 0.00511031
-0.0105333 0.537762 0.00533759
-0.00410128 0.571363 0.00504314
0.000890492 0.575917 0.00427873
0.00345932 0.557976 0.00318087
0.00294026 0.527066 0.00200052
-0.000435827 0.494693 0.00121302
3.78437e-17 0.502753 -0.0166116
-0.00940743 -0.470652 -0.0737031
-0.0178159 -0.494304 -0.133111
-0.0162314 -0.52449 -0.182115
-0.00446898 -0.540611 -0.213623
0.0150163 -0.530736 -0.224185
0.0389559 -0.488642 -0.212747
0.0639302 -0.412955 -0.180446
0.0867164 -0.306617 -0.130454
0.104546 -0.176214 -0.067662
0.115317 -0.0310806 0.00178553
0.117794 0.117795 0.0710873
0.111723 0.259082 0.133452
0.097845 0.382438 0.182752
0.0778114 0.479691 0.214118
0.0540117 0.545818 0.224393
0.029303 0.579633 0.212396
0.00665261 0.58405 0.17895
-0.011272 0.565844 0.126592
-0.0222485 0.534821 0.0589175
-0.0225406 0.502753 -0.0166116
7.19829e-17 0.481036 -0.032868
-0.0212382 -0.45201 -0.138341
-0.0386047 -0.472832 -0.250342
-0.0342094 -0.499208 -0.34258
-0.00776774 -0.512382 -0.401824
0.0354325 -0.501402 -0.421648
0.0882524 -0.460519 -0.400099
0.143152 -0.38845 -0.339339
0.193003 -0.287902 -0.245339
0.231692 -0.164978 -0.127303
0.254605 -0.0283543 0.00321806
0.259081 0.111724 0.133448
0.244676 0.244677 0.250635
0.213163 0.360858 0.343273
0.168341 0.452646 0.40222
0.115654 0.515372 0.421546
0.0615985 0.547955 0.399019
0.0129387 0.553148 0.336152
-0.0242218 0.537315 0.237636
-0.0449783 0.509627 0.11006
-0.0424852 0.481036 -0.032868
9.9076e-17 0.432127 -0.0459444
-0.0304264 -0.408742 -0.189368
-0.0544819 -0.424247 -0.342995
-0.0470721 -0.443546 -0.469426
-0.00779773 -0.451448 -0.55059
0.0557459 -0.43893 -0.577723
0.133217 -0.401199 -0.548172
0.213628 -0.337161 -0.464912
0.286554 -0.249085 -0.336128
0.343032 -0.142111 -0.17443
0.376292 -0.0235716 0.00435833
0.382437 0.0978459 0.182747
0.360857 0.213164 0.343275
0.314204 0.314204 0.470181
0.248117 0.394511 0.550944
0.170658 0.450133 0.577435
0.0914337 0.480157 0.54659
0.0204513 0.486913 0.460457
-0.0332672 0.475774 0.325422
-0.0625767 0.454462 0.150422
-0.0582089 0.432127 -0.0459444
1.16471e-16 0.361762 -0.0545946
-0.0358843 -0.345993 -0.221771
-0.0635103 -0.354287 -0.401962
-0.0529011 -0.364082 -0.550178
-0.0034982 -0.365058 -0.645287
0.0755414 -0.350814 -0.677057
0.171609 -0.317846 -0.642398
0.271208 -0.265323 -0.544811
0.361474 -0.19491 -0.393892
0.431315 -0.110428 -0.204415
0.472331 -0.0173524 0.00508125
0.479689 0.0778119 0.214112
0.452645 0.168341 0.402224
0.394511 0.248117 0.550949
0.312311 0.312311 0.645609
0.216072 0.357963 0.676674
0.117734 0.384373 0.640539
0.0297267 0.393241 0.539591
-0.0367631 0.388502 0.381273
-0.0729749 0.375806 0.175988
-0.0681288 0.361762 -0.0545946
1.22465e-16 0.278083 -0.0581139
-0.0369252 -0.271049 -0.23225
-0.0645345 -0.271035 -0.421312
-0.0506249 -0.27006 -0.576739
0.00562484 -0.263384 -0.676429
0.0943914 -0.247557 -0.709698
0.201893 -0.220507 -0.673337
0.313218 -0.181679 -0.571033
0.414062 -0.132033 -0.412845
0.49204 -0.0738723 -0.214256
0.537762 -0.010533 0.00530756
0.545817 0.054012 0.224387
0.515371 0.115654 0.421552
0.450132 0.170658 0.577446
0.357963 0.216071 0.676681
0.250075 0.250074 0.70926
0.139809 0.272195 0.671391
0.0410359 0.283376 0.565551
-0.0337851 0.285861 0.399503
-0.0750059 0.282872 0.184081
-0.0713707 0.278083 -0.0581139
1.16471e-16 0.190547 -0.0564926
-0.0333503 -0.192283 -0.219441
-0.0573681 -0.183834 -0.398754
-0.040233 -0.17228 -0.546038
0.0193398 -0.158401 -0.640436
0.111815 -0.141578 -0.671901
0.223358 -0.121088 -0.637439
0.338749 -0.0966051 -0.540562
0.443246 -0.068363 -0.390802
0.524029 -0.037133 -0.202815
0.571362 -0.00410124 0.00501706
0.579632 0.0293032 0.212391
0.547953 0.0615987 0.399027
0.480156 0.0914337 0.546603
0.384373 0.117734 0.640553
0.272195 0.139809 0.671399
0.157398 0.157397 0.635532
0.0542783 0.170657 0.535259
-0.0243463 0.180096 0.377869
-0.068666 0.186475 0.173523
-0.0679803 0.190547 -0.0564926
9.9076e-17 0.10857 -0.0505454
-0.0255264 -0.117763 -0.183923
-0.0429719 -0.101905 -0.335682
-0.0229848 -0.0817179 -0.460086
0.0365183 -0.0624869 -0.539701
0.127183 -0.0458176 -0.566181
0.23611 -0.0320388 -0.537082
0.348733 -0.0209718 -0.455407
0.450751 -0.0121933 -0.329203
0.52965 -0.00513377 -0.170822
0.575916 0.000890352 0.00425996
0.584048 0.00665279 0.178946
0.553147 0.0129391 0.336159
0.486912 0.0204517 0.460471
0.39324 0.0297269 0.539607
0.283376 0.0410358 0.565564
0.170657 0.0542779 0.535266
0.0688928 0.0688924 0.450587
-0.0095567 0.083828 0.317565
-0.0553246 0.0976421 0.144593
-0.0591068 0.10857 -0.0505454
7.19829e-17 0.0401064 -0.0420292
-0.0144843 -0.0535775 -0.127971
-0.0236559 -0.0328156 -0.236668
-0.00161719 -0.00800376 -0.32523
0.0549665 0.0131871 -0.38167
0.139582 0.0279266 -0.400336
0.240947 0.0352533 -0.379647
0.345809 0.035274 -0.321803
0.440925 0.0288869 -0.232527
0.514614 0.017615 -0.120559
0.557976 0.00345916 0.00316996
0.565843 -0.0112718 0.126588
0.537313 -0.0242211 0.237639
0.475772 -0.0332663 0.325432
0.388501 -0.0367623 0.381286
0.285861 -0.0337845 0.399517
0.180096 -0.024346 0.377879
0.0838283 -0.00955672 0.31757
0.00833202 0.00833192 0.222637
-0.037864 0.0261258 0.0986799
-0.0472259 0.0401064 -0.0420292
3.78437e-17 -0.00911514 -0.0337099
-0.00215606 -0.00243119 -0.0552646
-0.00336395 0.0182304 -0.108383
0.0194858 0.0412768 -0.150449
0.071336 0.0595829 -0.176781
0.147705 0.070103 -0.185255
0.239132 0.0716211 -0.175411
0.333933 0.0641881 -0.14841
0.420186 0.0488837 -0.106969
0.48727 0.0276221 -0.0551524
0.527066 0.00294024 0.00199504
0.53482 -0.0222482 0.0589132
0.509626 -0.0449776 0.110059
0.454461 -0.0625756 0.150424
0.375805 -0.0729736 0.175993
0.282872 -0.0750047 0.184087
0.186475 -0.0686651 0.17353
0.097642 -0.0553241 0.144598
0.0261258 -0.0378638 0.0986822
-0.0206473 -0.0206472 0.037588
-0.0365377 -0.00911514 -0.0337099
2.99952e-32 -0.0337209 -0.0291689
0.00775541 0.0338321 0.0243614
0.0117251 0.0437068 0.0346458
0.0341454 0.0556999 0.0452891
0.0811906 0.0648648 0.0530005
0.149892 0.0686032 0.0561492
0.232275 0.065789 0.0540007
0.318026 0.0563656 0.0465533
0.396412 0.0411253 0.0344395
0.457779 0.0215373 0.0188125
0.494693 -0.000435674 0.00120846
0.502753 -0.0225404 -0.0166169
0.481035 -0.0424848 -0.0328749
0.432126 -0.0582084 -0.045953
0.361762 -0.0681281 -0.0546038
0.278083 -0.07137 -0.0581222
0.190546 -0.0679797 -0.0564984
0.10857 -0.0591063 -0.0505482
0.040106 -0.0472256 -0.0420295
-0.00911546 -0.0365375 -0.033709
-0.0337211 -0.0337209 -0.0291689
-3.78437e-17 0.0243583 -0.006829
-0.0147149 0.073437 -0.00253077
-0.0217923 0.138489 0.0175632
-0.0434036 0.190893 0.0388876
-0.0861823 0.224035 0.0551752
-0.148181 0.234837 0.0641574
-0.222628 0.222512 0.0650891
-0.300389 0.188444 0.0582104
-0.371795 0.136061 0.0445683
-0.428063 0.0705259 0.0258656
-0.462369 -0.00174323 0.00428534
-0.470647 -0.0737075 -0.0177158
-0.452005 -0.138357 -0.0376759
-0.408739 -0.189392 -0.0534036
-0.345993 -0.2218 -0.0631874
-0.271052 -0.232276 -0.0659878
-0.192288 -0.219461 -0.0616011
-0.117767 -0.183934 -0.0508019
-0.05358 -0.127974 -0.0354999
-0.00243077 -0.0552648 -0.0190109
0.0338354 0.0243583 -0.006829
0.0734289 -0.00253281 -0.00253276
0.102504 0.102509 0.102506
0.113448 0.14753 0.147528
0.123029 0.18334 0.183344
0.14051 0.204521 0.204533
0.168268 0.208188 0.208207
0.204195 0.193435 0.193458
0.24373 0.161248 0.16127
0.281435 0.114362 0.114377
0.312118 0.0569767 0.0569838
0.331685 -0.00564043 -0.00564082
0.337658 -0.0676854 -0.067682
0.329446 -0.123354 -0.123352
0.308346 -0.167451 -0.167455
0.277297 -0.195858 -0.19587
0.240352 -0.205903 -0.205923
0.201871 -0.19655 -0.196573
0.16527 -0.168401 -0.168423
0.130884 -0.123476 -0.123492
0.091125 -0.0648827 -0.06489
0.022583 -0.00253281 -0.00253276
0.138473 -0.015699 0.0175594
0.147528 0.113456 0.147526
0.147854 0.147853 0.212594
0.149172 0.172081 0.267298
0.157794 0.183863 0.301138
0.175299 0.181765 0.308692
0.19989 0.165388 0.288191
0.227854 0.135603 0.241035
0.254814 0.0945632 0.171393
0.276645 0.0455413 0.0857195
0.290164 -0.00735654 -0.00791317
0.293546 -0.0595887 -0.100639
0.286515 -0.106574 -0.183677
0.270315 -0.144202 -0.249168
0.247474 -0.169191 -0.290922
0.221337 -0.179355 -0.304956
0.195345 -0.173717 -0.289775
0.171921 -0.152448 -0.246343
0.150474 -0.116592 -0.17752
0.122893 -0.0678586 -0.0865062
0.0664329 -0.015699 0.0175594
0.190871 -0.0403559 0.0388822
0.183344 0.123039 0.183341
0.172093 0.149173 0.267299
0.164759 0.164748 0.338563
0.165968 0.169522 0.383263
0.176312 0.163196 0.394115
0.193666 0.145811 0.368686
0.214469 0.118148 0.308751
0.234766 0.0818632 0.219708
0.250978 0.0394388 0.109938
0.26046 -0.00599412 -0.0100926
0.261825 -0.0509484 -0.128916
0.255065 -0.091856 -0.235193
0.241502 -0.125489 -0.318799
0.223553 -0.14922 -0.371773
0.204325 -0.161217 -0.389008
0.186976 -0.160499 -0.368583
0.173722 -0.146843 -0.311687
0.163779 -0.120532 -0.221701
0.14776 -0.082325 -0.101685
0.0961063 -0.0403559 0.0388822
0.224009 -0.0846591 0.0551691
0.204531 0.14052 0.204529
0.183887 0.157797 0.30114
0.169545 0.165962 0.383265
0.165351 0.165333 0.435052
0.171108 0.155903 0.44811
0.18421 0.137736 0.419617
0.200937 0.111375 0.351599
0.217421 0.0780196 0.250249
0.230315 0.0395323 0.125185
0.237268 -0.00167507 -0.0115949
0.237164 -0.0428662 -0.146958
0.230203 -0.0811934 -0.267938
0.217827 -0.11404 -0.362958
0.202495 -0.139232 -0.422932
0.187316 -0.155192 -0.442028
0.175478 -0.160977 -0.418037
0.1693 -0.156193 -0.352253
0.168008 -0.140789 -0.248326
0.161067 -0.115046 -0.109191
0.113575 -0.0846591 0.0551691
0.234811 -0.147422 0.0641518
0.208202 0.168273 0.208202
0.181798 0.1753 0.308695
0.16323 0.176306 0.39412
0.15593 0.171094 0.448113
0.159184 0.159164 0.462001
0.170016 0.14015 0.43286
0.18455 0.114161 0.362795
0.198931 0.0819411 0.258225
0.209939 0.0448714 0.129115
0.215394 0.00487514 -0.0121035
0.214348 -0.035782 -0.151837
0.207128 -0.0747023 -0.276665
0.195259 -0.109641 -0.37461
0.181245 -0.138707 -0.436273
0.168241 -0.160518 -0.455617
0.159522 -0.174243 -0.430339
0.157564 -0.179541 -0.361729
0.161737 -0.176383 -0.253426
0.161171 -0.164881 -0.108157
0.11899 -0.147422 0.0641518
0.222492 -0.222251 0.065085
0.193451 0.204193 0.193452
0.165422 0.199885 0.288194
0.145848 0.193655 0.368692
0.137767 0.184194 0.419622
0.140172 0.169998 0.432864
0.149963 0.149946 0.405684
0.163288 0.123557 0.340066
0.176417 0.0911079 0.242038
0.186298 0.0535929 0.120962
0.190903 0.0126113 -0.011489
0.189394 -0.0298358 -0.142541
0.182147 -0.0715972 -0.259585
0.170672 -0.110622 -0.351366
0.157423 -0.145184 -0.409046
0.145498 -0.174052 -0.42695
0.138161 -0.196568 -0.402897
0.137975 -0.21261 -0.338059
0.144581 -0.222402 -0.235765
0.147836 -0.226061 -0.0983678
0.1126 -0.222251 0.065085
0.188432 -0.300203 0.0582084
0.161263 0.24372 0.161265
0.135632 0.22784 0.241037
0.11818 0.214448 0.308757
0.111402 0.200913 0.351606
0.11418 0.184527 0.362801
0.123569 0.163271 0.340069
0.136016 0.136007 0.285076
0.148123 0.102545 0.202879
0.157135 0.0635507 0.101333
0.161229 0.0203958 -0.00977014
0.159663 -0.0250595 -0.119706
0.152786 -0.0707804 -0.217882
0.141979 -0.114797 -0.29484
0.12949 -0.155468 -0.343147
0.118181 -0.191686 -0.358021
0.111114 -0.222995 -0.337618
0.11079 -0.249578 -0.282886
0.117229 -0.272031 -0.196549
0.122046 -0.29058 -0.0804042
0.0953727 -0.300203 0.0582084
0.136056 -0.371705 0.0445681
0.114372 0.281421 0.114373
0.0945829 0.254793 0.171393
0.0818852 0.234737 0.219711
0.0780381 0.217388 0.250254
0.0819531 0.198901 0.25823
0.0911132 0.176396 0.242042
0.102547 0.148114 0.202881
0.113426 0.113426 0.144349
0.121463 0.0727078 0.0720356
0.125135 0.0271528 -0.00709115
0.123812 -0.0214687 -0.08539
0.117768 -0.0711695 -0.155309
0.10814 -0.120003 -0.210103
0.0967997 -0.166369 -0.244463
0.0861567 -0.209258 -0.254969
0.0788378 -0.248418 -0.240289
0.0771001 -0.284353 -0.201062
0.081381 -0.318058 -0.139149
0.0859286 -0.349923 -0.0556284
0.0691298 -0.371705 0.0445681
0.0705258 -0.428019 0.0258667
0.0569831 0.312106 0.0569806
0.0455521 0.276624 0.0857171
0.0394506 0.25095 0.109937
0.0395415 0.230284 0.125184
0.0448758 0.209911 0.129115
0.053592 0.186278 0.120962
0.063546 0.157126 0.101333
0.0727016 0.121464 0.0720356
0.0794078 0.0794142 0.0358657
0.0825503 0.0320104 -0.00369524
0.0816551 -0.0190612 -0.0428259
0.0768981 -0.071842 -0.0777529
0.0690795 -0.124394 -0.105106
0.0595375 -0.175139 -0.12223
0.0500212 -0.223146 -0.12741
0.0424855 -0.268335 -0.119959
0.0387374 -0.311501 -0.100143
0.0396119 -0.353993 -0.0687671
0.042586 -0.396386 -0.0260858
0.0364719 -0.428019 0.0258667
-0.00174235 -0.462348 0.00428708
-0.00563345 0.331678 -0.00564479
-0.00734593 0.290158 -0.00792141
-0.0059838 0.260457 -0.0101055
-0.00166887 0.237269 -0.0116111
0.00487496 0.215401 -0.0121203
0.0126049 0.190912 -0.0115035
0.0203856 0.16124 -0.00978033
0.0271422 0.125145 -0.00709655
0.0320019 0.0825581 -0.00369705
0.0343626 0.0343723 9.30153e-05
0.0339631 -0.0178323 0.00390902
0.0308844 -0.0721465 0.00737199
0.0255313 -0.126652 0.0101323
0.018588 -0.179791 0.0119107
0.0109668 -0.230694 0.0125366
0.00374168 -0.279408 0.0119796
-0.00192687 -0.326938 0.0103782
-0.00489547 -0.374896 0.00807481
-0.00419008 -0.42404 0.00568598
0.00055813 -0.462348 0.00428708
-0.073701 -0.470638 -0.0177132