# vtk DataFile Version 2.0 
Visualization 
ASCII 
DATASET STRUCTURED_GRID 
DIMENSIONS 21 21 21
POINTS 9261 float
0 0 0
0.1 0 0
0.2 0 0
0.3 0 0
0.4 0 0
0.5 0 0
0.6 0 0
0.7 0 0
0.8 0 0
0.9 0 0
1 0 0
1.1 0 0
1.2 0 0
1.3 0 0
1.4 0 0
1.5 0 0
1.6 0 0
1.7 0 0
1.8 0 0
1.9 0 0
2 0 0
0 0.1 0
0.1 0.1 0
0.2 0.1 0
0.3 0.1 0
0.4 0.1 0
0.5 0.1 0
0.6 0.1 0
0.7 0.1 0
0.8 0.1 0
0.9 0.1 0
1 0.1 0
1.1 0.1 0
1.2 0.1 0
1.3 0.1 0
1.4 0.1 0
1.5 0.1 0
1.6 0.1 0
1.7 0.1 0
1.8 0.1 0
1.9 0.1 0
2 0.1 0
0 0.2 0
0.1 0.2 0
0.2 0.2 0
0.3 0.2 0
0.4 0.2 0
0.5 0.2 0
0.6 0.2 0
0.7 0.2 0
0.8 0.2 0
0.9 0.2 0
1 0.2 0
1.1 0.2 0
1.2 0.2 0
1.3 0.2 0
1.4 0.2 0
1.5 0.2 0
1.6 0.2 0
1.7 0.2 0
1.8 0.2 0
1.9 0.2 0
2 0.2 0
0 0.3 0
0.1 0.3 0
0.2 0.3 0
0.3 0.3 0
0.4 0.3 0
0.5 0.3 0
0.6 0.3 0
0.7 0.3 0
0.8 0.3 0
0.9 0.3 0
1 0.3 0
1.1 0.3 0
1.2 0.3 0
1.3 0.3 0
1.4 0.3 0
1.5 0.3 0
1.6 0.3 0
1.7 0.3 0
1.8 0.3 0
1.9 0.3 0
2 0.3 0
0 0.4 0
0.1 0.4 0
0.2 0.4 0
0.3 0.4 0
0.4 0.4 0
0.5 0.4 0
0.6 0.4 0
0.7 0.4 0
0.8 0.4 0
0.9 0.4 0
1 0.4 0
1.1 0.4 0
1.2 0.4 0
1.3 0.4 0
1.4 0.4 0
1.5 0.4 0
1.6 0.4 0
1.7 0.4 0
1.8 0.4 0
1.9 0.4 0
2 0.4 0
0 0.5 0
0.1 0.5 0
0.2 0.5 0
0.3 0.5 0
0.4 0.5 0
0.5 0.5 0
0.6 0.5 0
0.7 0.5 0
0.8 0.5 0
0.9 0.5 0
1 0.5 0
1.1 0.5 0
1.2 0.5 0
1.3 0.5 0
1.4 0.5 0
1.5 0.5 0
1.6 0.5 0
1.7 0.5 0
1.8 0.5 0
1.9 0.5 0
2 0.5 0
0 0.6 0
0.1 0.6 0
0.2 0.6 0
0.3 0.6 0
0.4 0.6 0
0.5 0.6 0
0.6 0.6 0
0.7 0.6 0
0.8 0.6 0
0.9 0.6 0
1 0.6 0
1.1 0.6 0
1.2 0.6 0
1.3 0.6 0
1.4 0.6 0
1.5 0.6 0
1.6 0.6 0
1.7 0.6 0
1.8 0.6 0
1.9 0.6 0
2 0.6 0
0 0.7 0
0.1 0.7 0
0.2 0.7 0
0.3 0.7 0
0.4 0.7 0
0.5 0.7 0
0.6 0.7 0
0.7 0.7 0
0.8 0.7 0
0.9 0.7 0
1 0.7 0
1.1 0.7 0
1.2 0.7 0
1.3 0.7 0
1.4 0.7 0
1.5 0.7 0
1.6 0.7 0
1.7 0.7 0
1.8 0.7 0
1.9 0.7 0
2 0.7 0
0 0.8 0
0.1 0.8 0
0.2 0.8 0
0.3 0.8 0
0.4 0.8 0
0.5 0.8 0
0.6 0.8 0
0.7 0.8 0
0.8 0.8 0
0.9 0.8 0
1 0.8 0
1.1 0.8 0
1.2 0.8 0
1.3 0.8 0
1.4 0.8 0
1.5 0.8 0
1.6 0.8 0
1.7 0.8 0
1.8 0.8 0
1.9 0.8 0
2 0.8 0
0 0.9 0
0.1 0.9 0
0.2 0.9 0
0.3 0.9 0
0.4 0.9 0
0.5 0.9 0
0.6 0.9 0
0.7 0.9 0
0.8 0.9 0
0.9 0.9 0
1 0.9 0
1.1 0.9 0
1.2 0.9 0
1.3 0.9 0
1.4 0.9 0
1.5 0.9 0
1.6 0.9 0
1.7 0.9 0
1.8 0.9 0
1.9 0.9 0
2 0.9 0
0 1 0
0.1 1 0
0.2 1 0
0.3 1 0
0.4 1 0
0.5 1 0
0.6 1 0
0.7 1 0
0.8 1 0
0.9 1 0
1 1 0
1.1 1 0
1.2 1 0
1.3 1 0
1.4 1 0
1.5 1 0
1.6 1 0
1.7 1 0
1.8 1 0
1.9 1 0
2 1 0
0 1.1 0
0.1 1.1 0
0.2 1.1 0
0.3 1.1 0
0.4 1.1 0
0.5 1.1 0
0.6 1.1 0
0.7 1.1 0
0.8 1.1 0
0.9 1.1 0
1 1.1 0
1.1 1.1 0
1.2 1.1 0
1.3 1.1 0
1.4 1.1 0
1.5 1.1 0
1.6 1.1 0
1.7 1.1 0
1.8 1.1 0
1.9 1.1 0
2 1.1 0
0 1.2 0
0.1 1.2 0
0.2 1.2 0
0.3 1.2 0
0.4 1.2 0
0.5 1.2 0
0.6 1.2 0
0.7 1.2 0
0.8 1.2 0
0.9 1.2 0
1 1.2 0
1.1 1.2 0
1.2 1.2 0
1.3 1.2 0
1.4 1.2 0
1.5 1.2 0
1.6 1.2 0
1.7 1.2 0
1.8 1.2 0
1.9 1.2 0
2 1.2 0
0 1.3 0
0.1 1.3 0
0.2 1.3 0
0.3 1.3 0
0.4 1.3 0
0.5 1.3 0
0.6 1.3 0
0.7 1.3 0
0.8 1.3 0
0.9 1.3 0
1 1.3 0
1.1 1.3 0
1.2 1.3 0
1.3 1.3 0
1.4 1.3 0
1.5 1.3 0
1.6 1.3 0
1.7 1.3 0
1.8 1.3 0
1.9 1.3 0
2 1.3 0
0 1.4 0
0.1 1.4 0
0.2 1.4 0
0.3 1.4 0
0.4 1.4 0
0.5 1.4 0
0.6 1.4 0
0.7 1.4 0
0.8 1.4 0
0.9 1.4 0
1 1.4 0
1.1 1.4 0
1.2 1.4 0
1.3 1.4 0
1.4 1.4 0
1.5 1.4 0
1.6 1.4 0
1.7 1.4 0
1.8 1.4 0
1.9 1.4 0
2 1.4 0
0 1.5 0
0.1 1.5 0
0.2 1.5 0
0.3 1.5 0
0.4 1.5 0
0.5 1.5 0
0.6 1.5 0
0.7 1.5 0
0.8 1.5 0
0.9 1.5 0
1 1.5 0
1.1 1.5 0
1.2 1.5 0
1.3 1.5 0
1.4 1.5 0
1.5 1.5 0
1.6 1.5 0
1.7 1.5 0
1.8 1.5 0
1.9 1.5 0
2 1.5 0
0 1.6 0
0.1 1.6 0
0.2 1.6 0
0.3 1.6 0
0.4 1.6 0
0.5 1.6 0
0.6 1.6 0
0.7 1.6 0
0.8 1.6 0
0.9 1.6 0
1 1.6 0
1.1 1.6 0
1.2 1.6 0
1.3 1.6 0
1.4 1.6 0
1.5 1.6 0
1.6 1.6 0
1.7 1.6 0
1.8 1.6 0
1.9 1.6 0
2 1.6 0
0 1.7 0
0.1 1.7 0
0.2 1.7 0
0.3 1.7 0
0.4 1.7 0
0.5 1.7 0
0.6 1.7 0
0.7 1.7 0
0.8 1.7 0
0.9 1.7 0
1 1.7 0
1.1 1.7 0
1.2 1.7 0
1.3 1.7 0
1.4 1.7 0
1.5 1.7 0
1.6 1.7 0
1.7 1.7 0
1.8 1.7 0
1.9 1.7 0
2 1.7 0
0 1.8 0
0.1 1.8 0
0.2 1.8 0
0.3 1.8 0
0.4 1.8 0
0.5 1.8 0
0.6 1.8 0
0.7 1.8 0
0.8 1.8 0
0.9 1.8 0
1 1.8 0
1.1 1.8 0
1.2 1.8 0
1.3 1.8 0
1.4 1.8 0
1.5 1.8 0
1.6 1.8 0
1.7 1.8 0
1.8 1.8 0
1.9 1.8 0
2 1.8 0
0 1.9 0
0.1 1.9 0
0.2 1.9 0
0.3 1.9 0
0.4 1.9 0
0.5 1.9 0
0.6 1.9 0
0.7 1.9 0
0.8 1.9 0
0.9 1.9 0
1 1.9 0
1.1 1.9 0
1.2 1.9 0
1.3 1.9 0
1.4 1.9 0
1.5 1.9 0
1.6 1.9 0
1.7 1.9 0
1.8 1.9 0
1.9 1.9 0
2 1.9 0
0 2 0
0.1 2 0
0.2 2 0
0.3 2 0
0.4 2 0
0.5 2 0
0.6 2 0
0.7 2 0
0.8 2 0
0.9 2 0
1 2 0
1.1 2 0
1.2 2 0
1.3 2 0
1.4 2 0
1.5 2 0
1.6 2 0
1.7 2 0
1.8 2 0
1.9 2 0
2 2 0
0 0 0.1
0.1 0 0.1
0.2 0 0.1
0.3 0 0.1
0.4 0 0.1
0.5 0 0.1
0.6 0 0.1
0.7 0 0.1
0.8 0 0.1
0.9 0 0.1
1 0 0.1
1.1 0 0.1
1.2 0 0.1
1.3 0 0.1
1.4 0 0.1
1.5 0 0.1
1.6 0 0.1
1.7 0 0.1
1.8 0 0.1
1.9 0 0.1
2 0 0.1
0 0.1 0.1
0.1 0.1 0.1
0.2 0.1 0.1
0.3 0.1 0.1
0.4 0.1 0.1
0.5 0.1 0.1
0.6 0.1 0.1
0.7 0.1 0.1
0.8 0.1 0.1
0.9 0.1 0.1
1 0.1 0.1
1.1 0.1 0.1
1.2 0.1 0.1
1.3 0.1 0.1
1.4 0.1 0.1
1.5 0.1 0.1
1.6 0.1 0.1
1.7 0.1 0.1
1.8 0.1 0.1
1.9 0.1 0.1
2 0.1 0.1
0 0.2 0.1
0.1 0.2 0.1
0.2 0.2 0.1
0.3 0.2 0.1
0.4 0.2 0.1
0.5 0.2 0.1
0.6 0.2 0.1
0.7 0.2 0.1
0.8 0.2 0.1
0.9 0.2 0.1
1 0.2 0.1
1.1 0.2 0.1
1.2 0.2 0.1
1.3 0.2 0.1
1.4 0.2 0.1
1.5 0.2 0.1
1.6 0.2 0.1
1.7 0.2 0.1
1.8 0.2 0.1
1.9 0.2 0.1
2 0.2 0.1
0 0.3 0.1
0.1 0.3 0.1
0.2 0.3 0.1
0.3 0.3 0.1
0.4 0.3 0.1
0.5 0.3 0.1
0.6 0.3 0.1
0.7 0.3 0.1
0.8 0.3 0.1
0.9 0.3 0.1
1 0.3 0.1
1.1 0.3 0.1
1.2 0.3 0.1
1.3 0.3 0.1
1.4 0.3 0.1
1.5 0.3 0.1
1.6 0.3 0.1
1.7 0.3 0.1
1.8 0.3 0.1
1.9 0.3 0.1
2 0.3 0.1
0 0.4 0.1
0.1 0.4 0.1
0.2 0.4 0.1
0.3 0.4 0.1
0.4 0.4 0.1
0.5 0.4 0.1
0.6 0.4 0.1
0.7 0.4 0.1
0.8 0.4 0.1
0.9 0.4 0.1
1 0.4 0.1
1.1 0.4 0.1
1.2 0.4 0.1
1.3 0.4 0.1
1.4 0.4 0.1
1.5 0.4 0.1
1.6 0.4 0.1
1.7 0.4 0.1
1.8 0.4 0.1
1.9 0.4 0.1
2 0.4 0.1
0 0.5 0.1
0.1 0.5 0.1
0.2 0.5 0.1
0.3 0.5 0.1
0.4 0.5 0.1
0.5 0.5 0.1
0.6 0.5 0.1
0.7 0.5 0.1
0.8 0.5 0.1
0.9 0.5 0.1
1 0.5 0.1
1.1 0.5 0.1
1.2 0.5 0.1
1.3 0.5 0.1
1.4 0.5 0.1
1.5 0.5 0.1
1.6 0.5 0.1
1.7 0.5 0.1
1.8 0.5 0.1
1.9 0.5 0.1
2 0.5 0.1
0 0.6 0.1
0.1 0.6 0.1
0.2 0.6 0.1
0.3 0.6 0.1
0.4 0.6 0.1
0.5 0.6 0.1
0.6 0.6 0.1
0.7 0.6 0.1
0.8 0.6 0.1
0.9 0.6 0.1
1 0.6 0.1
1.1 0.6 0.1
1.2 0.6 0.1
1.3 0.6 0.1
1.4 0.6 0.1
1.5 0.6 0.1
1.6 0.6 0.1
1.7 0.6 0.1
1.8 0.6 0.1
1.9 0.6 0.1
2 0.6 0.1
0 0.7 0.1
0.1 0.7 0.1
0.2 0.7 0.1
0.3 0.7 0.1
0.4 0.7 0.1
0.5 0.7 0.1
0.6 0.7 0.1
0.7 0.7 0.1
0.8 0.7 0.1
0.9 0.7 0.1
1 0.7 0.1
1.1 0.7 0.1
1.2 0.7 0.1
1.3 0.7 0.1
1.4 0.7 0.1
1.5 0.7 0.1
1.6 0.7 0.1
1.7 0.7 0.1
1.8 0.7 0.1
1.9 0.7 0.1
2 0.7 0.1
0 0.8 0.1
0.1 0.8 0.1
0.2 0.8 0.1
0.3 0.8 0.1
0.4 0.8 0.1
0.5 0.8 0.1
0.6 0.8 0.1
0.7 0.8 0.1
0.8 0.8 0.1
0.9 0.8 0.1
1 0.8 0.1
1.1 0.8 0.1
1.2 0.8 0.1
1.3 0.8 0.1
1.4 0.8 0.1
1.5 0.8 0.1
1.6 0.8 0.1
1.7 0.8 0.1
1.8 0.8 0.1
1.9 0.8 0.1
2 0.8 0.1
0 0.9 0.1
0.1 0.9 0.1
0.2 0.9 0.1
0.3 0.9 0.1
0.4 0.9 0.1
0.5 0.9 0.1
0.6 0.9 0.1
0.7 0.9 0.1
0.8 0.9 0.1
0.9 0.9 0.1
1 0.9 0.1
1.1 0.9 0.1
1.2 0.9 0.1
1.3 0.9 0.1
1.4 0.9 0.1
1.5 0.9 0.1
1.6 0.9 0.1
1.7 0.9 0.1
1.8 0.9 0.1
1.9 0.9 0.1
2 0.9 0.1
0 1 0.1
0.1 1 0.1
0.2 1 0.1
0.3 1 0.1
0.4 1 0.1
0.5 1 0.1
0.6 1 0.1
0.7 1 0.1
0.8 1 0.1
0.9 1 0.1
1 1 0.1
1.1 1 0.1
1.2 1 0.1
1.3 1 0.1
1.4 1 0.1
1.5 1 0.1
1.6 1 0.1
1.7 1 0.1
1.8 1 0.1
1.9 1 0.1
2 1 0.1
0 1.1 0.1
0.1 1.1 0.1
0.2 1.1 0.1
0.3 1.1 0.1
0.4 1.1 0.1
0.5 1.1 0.1
0.6 1.1 0.1
0.7 1.1 0.1
0.8 1.1 0.1
0.9 1.1 0.1
1 1.1 0.1
1.1 1.1 0.1
1.2 1.1 0.1
1.3 1.1 0.1
1.4 1.1 0.1
1.5 1.1 0.1
1.6 1.1 0.1
1.7 1.1 0.1
1.8 1.1 0.1
1.9 1.1 0.1
2 1.1 0.1
0 1.2 0.1
0.1 1.2 0.1
0.2 1.2 0.1
0.3 1.2 0.1
0.4 1.2 0.1
0.5 1.2 0.1
0.6 1.2 0.1
0.7 1.2 0.1
0.8 1.2 0.1
0.9 1.2 0.1
1 1.2 0.1
1.1 1.2 0.1
1.2 1.2 0.1
1.3 1.2 0.1
1.4 1.2 0.1
1.5 1.2 0.1
1.6 1.2 0.1
1.7 1.2 0.1
1.8 1.2 0.1
1.9 1.2 0.1
2 1.2 0.1
0 1.3 0.1
0.1 1.3 0.1
0.2 1.3 0.1
0.3 1.3 0.1
0.4 1.3 0.1
0.5 1.3 0.1
0.6 1.3 0.1
0.7 1.3 0.1
0.8 1.3 0.1
0.9 1.3 0.1
1 1.3 0.1
1.1 1.3 0.1
1.2 1.3 0.1
1.3 1.3 0.1
1.4 1.3 0.1
1.5 1.3 0.1
1.6 1.3 0.1
1.7 1.3 0.1
1.8 1.3 0.1
1.9 1.3 0.1
2 1.3 0.1
0 1.4 0.1
0.1 1.4 0.1
0.2 1.4 0.1
0.3 1.4 0.1
0.4 1.4 0.1
0.5 1.4 0.1
0.6 1.4 0.1
0.7 1.4 0.1
0.8 1.4 0.1
0.9 1.4 0.1
1 1.4 0.1
1.1 1.4 0.1
1.2 1.4 0.1
1.3 1.4 0.1
1.4 1.4 0.1
1.5 1.4 0.1
1.6 1.4 0.1
1.7 1.4 0.1
1.8 1.4 0.1
1.9 1.4 0.1
2 1.4 0.1
0 1.5 0.1
0.1 1.5 0.1
0.2 1.5 0.1
0.3 1.5 0.1
0.4 1.5 0.1
0.5 1.5 0.1
0.6 1.5 0.1
0.7 1.5 0.1
0.8 1.5 0.1
0.9 1.5 0.1
1 1.5 0.1
1.1 1.5 0.1
1.2 1.5 0.1
1.3 1.5 0.1
1.4 1.5 0.1
1.5 1.5 0.1
1.6 1.5 0.1
1.7 1.5 0.1
1.8 1.5 0.1
1.9 1.5 0.1
2 1.5 0.1
0 1.6 0.1
0.1 1.6 0.1
0.2 1.6 0.1
0.3 1.6 0.1
0.4 1.6 0.1
0.5 1.6 0.1
0.6 1.6 0.1
0.7 1.6 0.1
0.8 1.6 0.1
0.9 1.6 0.1
1 1.6 0.1
1.1 1.6 0.1
1.2 1.6 0.1
1.3 1.6 0.1
1.4 1.6 0.1
1.5 1.6 0.1
1.6 1.6 0.1
1.7 1.6 0.1
1.8 1.6 0.1
1.9 1.6 0.1
2 1.6 0.1
0 1.7 0.1
0.1 1.7 0.1
0.2 1.7 0.1
0.3 1.7 0.1
0.4 1.7 0.1
0.5 1.7 0.1
0.6 1.7 0.1
0.7 1.7 0.1
0.8 1.7 0.1
0.9 1.7 0.1
1 1.7 0.1
1.1 1.7 0.1
1.2 1.7 0.1
1.3 1.7 0.1
1.4 1.7 0.1
1.5 1.7 0.1
1.6 1.7 0.1
1.7 1.7 0.1
1.8 1.7 0.1
1.9 1.7 0.1
2 1.7 0.1
0 1.8 0.1
0.1 1.8 0.1
0.2 1.8 0.1
0.3 1.8 0.1
0.4 1.8 0.1
0.5 1.8 0.1
0.6 1.8 0.1
0.7 1.8 0.1
0.8 1.8 0.1
0.9 1.8 0.1
1 1.8 0.1
1.1 1.8 0.1
1.2 1.8 0.1
1.3 1.8 0.1
1.4 1.8 0.1
1.5 1.8 0.1
1.6 1.8 0.1
1.7 1.8 0.1
1.8 1.8 0.1
1.9 1.8 0.1
2 1.8 0.1
0 1.9 0.1
0.1 1.9 0.1
0.2 1.9 0.1
0.3 1.9 0.1
0.4 1.9 0.1
0.5 1.9 0.1
0.6 1.9 0.1
0.7 1.9 0.1
0.8 1.9 0.1
0.9 1.9 0.1
1 1.9 0.1
1.1 1.9 0.1
1.2 1.9 0.1
1.3 1.9 0.1
1.4 1.9 0.1
1.5 1.9 0.1
1.6 1.9 0.1
1.7 1.9 0.1
1.8 1.9 0.1
1.9 1.9 0.1
2 1.9 0.1
0 2 0.1
0.1 2 0.1
0.2 2 0.1
0.3 2 0.1
0.4 2 0.1
0.5 2 0.1
0.6 2 0.1
0.7 2 0.1
0.8 2 0.1
0.9 2 0.1
1 2 0.1
1.1 2 0.1
1.2 2 0.1
1.3 2 0.1
1.4 2 0.1
1.5 2 0.1
1.6 2 0.1
1.7 2 0.1
1.8 2 0.1
1.9 2 0.1
2 2 0.1
0 0 0.2
0.1 0 0.2
0.2 0 0.2
0.3 0 0.2
0.4 0 0.2
0.5 0 0.2
0.6 0 0.2
0.7 0 0.2
0.8 0 0.2
0.9 0 0.2
1 0 0.2
1.1 0 0.2
1.2 0 0.2
1.3 0 0.2
1.4 0 0.2
1.5 0 0.2
1.6 0 0.2
1.7 0 0.2
1.8 0 0.2
1.9 0 0.2
2 0 0.2
0 0.1 0.2
0.1 0.1 0.2
0.2 0.1 0.2
0.3 0.1 0.2
0.4 0.1 0.2
0.5 0.1 0.2
0.6 0.1 0.2
0.7 0.1 0.2
0.8 0.1 0.2
0.9 0.1 0.2
1 0.1 0.2
1.1 0.1 0.2
1.2 0.1 0.2
1.3 0.1 0.2
1.4 0.1 0.2
1.5 0.1 0.2
1.6 0.1 0.2
1.7 0.1 0.2
1.8 0.1 0.2
1.9 0.1 0.2
2 0.1 0.2
0 0.2 0.2
0.1 0.2 0.2
0.2 0.2 0.2
0.3 0.2 0.2
0.4 0.2 0.2
0.5 0.2 0.2
0.6 0.2 0.2
0.7 0.2 0.2
0.8 0.2 0.2
0.9 0.2 0.2
1 0.2 0.2
1.1 0.2 0.2
1.2 0.2 0.2
1.3 0.2 0.2
1.4 0.2 0.2
1.5 0.2 0.2
1.6 0.2 0.2
1.7 0.2 0.2
1.8 0.2 0.2
1.9 0.2 0.2
[...]
POINT_DATA 9261
VECTORS velocity double 
0 0 0
0 0 0
0 0 0
0 0 0
0 0 0
0 0 0
0 0 0
0 0 0
0 0 0
0 0 0
0 0 0
0 0 0
0 0 0
0 0 0
0 0 0
0 0 0
0 0 0
0 0 0
0 0 0
0 0 0
0 0 0
0 0 0
0 0 0.0477458
0 0 0.0908178
0 0 0.125
0 0 0.146946
0 0 0.154508
0 0 0.146946
0 0 0.125
0 0 0.0908178
0 0 0.0477458
0 0 1.89218e-17
0 0 -0.0477458
0 0 -0.0908178
0 0 -0.125
0 0 -0.146946
0 0 -0.154508
0 0 -0.146946
0 0 -0.125
0 0 -0.0908178
0 0 -0.0477458
0 0 -3.78437e-17
0 0 0
0 0 0.0908178
0 0 0.172746
0 0 0.237764
0 0 0.279508
0 0 0.293893
0 0 0.279508
0 0 0.237764
0 0 0.172746
0 0 0.0908178
0 0 3.59915e-17
0 0 -0.0908178
0 0 -0.172746
0 0 -0.237764
0 0 -0.279508
0 0 -0.293893
0 0 -0.279508
0 0 -0.237764
0 0 -0.172746
0 0 -0.0908178
0 0 -7.19829e-17
0 0 0
0 0 0.125
0 0 0.237764
0 0 0.327254
0 0 0.38471
0 0 0.404508
0 0 0.38471
0 0 0.327254
0 0 0.237764
0 0 0.125
0 0 4.9538e-17
0 0 -0.125
0 0 -0.237764
0 0 -0.327254
0 0 -0.38471
0 0 -0.404508
0 0 -0.38471
0 0 -0.327254
0 0 -0.237764
0 0 -0.125
0 0 -9.9076e-17
0 0 0
0 0 0.146946
0 0 0.279508
0 0 0.38471
0 0 0.452254
0 0 0.475528
0 0 0.452254
0 0 0.38471
0 0 0.279508
0 0 0.146946
0 0 5.82354e-17
0 0 -0.146946
0 0 -0.279508
0 0 -0.38471
0 0 -0.452254
0 0 -0.475528
0 0 -0.452254
0 0 -0.38471
0 0 -0.279508
0 0 -0.146946
0 0 -1.16471e-16
0 0 0
0 0 0.154508
0 0 0.293893
0 0 0.404508
0 0 0.475528
0 0 0.5
0 0 0.475528
0 0 0.404508
0 0 0.293893
0 0 0.154508
0 0 6.12323e-17
0 0 -0.154508
0 0 -0.293893
0 0 -0.404508
0 0 -0.475528
0 0 -0.5
0 0 -0.475528
0 0 -0.404508
0 0 -0.293893
0 0 -0.154508
0 0 -1.22465e-16
0 0 0
0 0 0.146946
0 0 0.279508
0 0 0.38471
0 0 0.452254
0 0 0.475528
0 0 0.452254
0 0 0.38471
0 0 0.279508
0 0 0.146946
0 0 5.82354e-17
0 0 -0.146946
0 0 -0.279508
0 0 -0.38471
0 0 -0.452254
0 0 -0.475528
0 0 -0.452254
0 0 -0.38471
0 0 -0.279508
0 0 -0.146946
0 0 -1.16471e-16
0 0 0
0 0 0.125
0 0 0.237764
0 0 0.327254
0 0 0.38471
0 0 0.404508
0 0 0.38471
0 0 0.327254
0 0 0.237764
0 0 0.125
0 0 4.9538e-17
0 0 -0.125
0 0 -0.237764
0 0 -0.327254
0 0 -0.38471
0 0 -0.404508
0 0 -0.38471
0 0 -0.327254
0 0 -0.237764
0 0 -0.125
0 0 -9.9076e-17
0 0 0
0 0 0.0908178
0 0 0.172746
0 0 0.237764
0 0 0.279508
0 0 0.293893
0 0 0.279508
0 0 0.237764
0 0 0.172746
0 0 0.0908178
0 0 3.59915e-17
0 0 -0.0908178
0 0 -0.172746
0 0 -0.237764
0 0 -0.279508
0 0 -0.293893
0 0 -0.279508
0 0 -0.237764
0 0 -0.172746
0 0 -0.0908178
0 0 -7.19829e-17
0 0 0
0 0 0.0477458
0 0 0.0908178
0 0 0.125
0 0 0.146946
0 0 0.154508
0 0 0.146946
0 0 0.125
0 0 0.0908178
0 0 0.0477458
0 0 1.89218e-17
0 0 -0.0477458
0 0 -0.0908178
0 0 -0.125
0 0 -0.146946
0 0 -0.154508
0 0 -0.146946
0 0 -0.125
0 0 -0.0908178
0 0 -0.0477458
0 0 -3.78437e-17
0 0 0
0 0 1.89218e-17
0 0 3.59915e-17
0 0 4.9538e-17
0 0 5.82354e-17
0 0 6.12323e-17
0 0 5.82354e-17
0 0 4.9538e-17
0 0 3.59915e-17
0 0 1.89218e-17
0 0 7.4988e-33
0 0 -1.89218e-17
0 0 -3.59915e-17
0 0 -4.9538e-17
0 0 -5.82354e-17
0 0 -6.12323e-17
0 0 -5.82354e-17
0 0 -4.9538e-17
0 0 -3.59915e-17
0 0 -1.89218e-17
0 0 -1.49976e-32
0 0 0
0 0 -0.0477458
0 0 -0.0908178
0 0 -0.125
0 0 -0.146946
0 0 -0.154508
0 0 -0.146946
0 0 -0.125
0 0 -0.0908178
0 0 -0.0477458
0 0 -1.89218e-17
0 0 0.0477458
0 0 0.0908178
0 0 0.125
0 0 0.146946
0 0 0.154508
0 0 0.146946
0 0 0.125
0 0 0.0908178
0 0 0.0477458
0 0 3.78437e-17
0 0 0
0 0 -0.0908178
0 0 -0.172746
0 0 -0.237764
0 0 -0.279508
0 0 -0.293893
0 0 -0.279508
0 0 -0.237764
0 0 -0.172746
0 0 -0.0908178
0 0 -3.59915e-17
0 0 0.0908178
0 0 0.172746
0 0 0.237764
0 0 0.279508
0 0 0.293893
0 0 0.279508
0 0 0.237764
0 0 0.172746
0 0 0.0908178
0 0 7.19829e-17
0 0 0
0 0 -0.125
0 0 -0.237764
0 0 -0.327254
0 0 -0.38471
0 0 -0.404508
0 0 -0.38471
0 0 -0.327254
0 0 -0.237764
0 0 -0.125
0 0 -4.9538e-17
0 0 0.125
0 0 0.237764
0 0 0.327254
0 0 0.38471
0 0 0.404508
0 0 0.38471
0 0 0.327254
0 0 0.237764
0 0 0.125
0 0 9.9076e-17
0 0 0
0 0 -0.146946
0 0 -0.279508
0 0 -0.38471
0 0 -0.452254
0 0 -0.475528
0 0 -0.452254
0 0 -0.38471
0 0 -0.279508
0 0 -0.146946
0 0 -5.82354e-17
0 0 0.146946
0 0 0.279508
0 0 0.38471
0 0 0.452254
0 0 0.475528
0 0 0.452254
0 0 0.38471
0 0 0.279508
0 0 0.146946
0 0 1.16471e-16
0 0 0
0 0 -0.154508
0 0 -0.293893
0 0 -0.404508
0 0 -0.475528
0 0 -0.5
0 0 -0.475528
0 0 -0.404508
0 0 -0.293893
0 0 -0.154508
0 0 -6.12323e-17
0 0 0.154508
0 0 0.293893
0 0 0.404508
0 0 0.475528
0 0 0.5
0 0 0.475528
0 0 0.404508
0 0 0.293893
0 0 0.154508
0 0 1.22465e-16
0 0 0
0 0 -0.146946
0 0 -0.279508
0 0 -0.38471
0 0 -0.452254
0 0 -0.475528
0 0 -0.452254
0 0 -0.38471
0 0 -0.279508
0 0 -0.146946
0 0 -5.82354e-17
0 0 0.146946
0 0 0.279508
0 0 0.38471
0 0 0.452254
0 0 0.475528
0 0 0.452254
0 0 0.38471
0 0 0.279508
0 0 0.146946
0 0 1.16471e-16
0 0 0
0 0 -0.125
0 0 -0.237764
0 0 -0.327254
0 0 -0.38471
0 0 -0.404508
0 0 -0.38471
0 0 -0.327254
0 0 -0.237764
0 0 -0.125
0 0 -4.9538e-17
0 0 0.125
0 0 0.237764
0 0 0.327254
0 0 0.38471
0 0 0.404508
0 0 0.38471
0 0 0.327254
0 0 0.237764
0 0 0.125
0 0 9.9076e-17
0 0 0
0 0 -0.0908178
0 0 -0.172746
0 0 -0.237764
0 0 -0.279508
0 0 -0.293893
0 0 -0.279508
0 0 -0.237764
0 0 -0.172746
0 0 -0.0908178
0 0 -3.59915e-17
0 0 0.0908178
0 0 0.172746
0 0 0.237764
0 0 0.279508
0 0 0.293893
0 0 0.279508
0 0 0.237764
0 0 0.172746
0 0 0.0908178
0 0 7.19829e-17
0 0 0
0 0 -0.0477458
0 0 -0.0908178
0 0 -0.125
0 0 -0.146946
0 0 -0.154508
0 0 -0.146946
0 0 -0.125
0 0 -0.0908178
0 0 -0.0477458
0 0 -1.89218e-17
0 0 0.0477458
0 0 0.0908178
0 0 0.125
0 0 0.146946
0 0 0.154508
0 0 0.146946
0 0 0.125
0 0 0.0908178
0 0 0.0477458
0 0 3.78437e-17
0 0 0
0 0 -3.78437e-17
0 0 -7.19829e-17
0 0 -9.9076e-17
0 0 -1.16471e-16
0 0 -1.22465e-16
0 0 -1.16471e-16
0 0 -9.9076e-17
0 0 -7.19829e-17
0 0 -3.78437e-17
0 0 -1.49976e-32
0 0 3.78437e-17
0 0 7.19829e-17
0 0 9.9076e-17
0 0 1.16471e-16
0 0 1.22465e-16
0 0 1.16471e-16
0 0 9.9076e-17
0 0 7.19829e-17
0 0 3.78437e-17
0 0 2.99952e-32
0 0 0
0 0.0477458 0
0 0.0908178 0
0 0.125 0
0 0.146946 0
0 0.154508 0
0 0.146946 0
0 0.125 0
0 0.0908178 0
0 0.0477458 0
0 1.89218e-17 0
0 -0.0477458 0
0 -0.0908178 0
0 -0.125 0
0 -0.146946 0
0 -0.154508 0
0 -0.146946 0
0 -0.125 0
0 -0.0908178 0
0 -0.0477458 0
0 -3.78437e-17 0
0.0477458 0 0
0.0692818 0.0692818 0.0692818
0.073268 0.131782 0.131782
0.0646983 0.181382 0.181382
0.0471034 0.213227 0.213227
0.0235517 0.224201 0.224201
-0.0029784 0.213227 0.213227
-0.0295535 0.181382 0.181382
-0.0534038 0.131782 0.131782
-0.0721108 0.0692818 0.0692818
-0.0838012 2.74567e-17 2.74567e-17
-0.0873095 -0.0692818 -0.0692818
-0.0822819 -0.131782 -0.131782
-0.0692052 -0.181382 -0.181382
-0.0493568 -0.213227 -0.213227
-0.0246784 -0.224201 -0.224201
0.00241504 -0.213227 -0.213227
0.0292718 -0.181382 -0.181382
0.053263 -0.131782 -0.131782
0.0720404 -0.0692818 -0.0692818
0.083766 -5.49133e-17 -5.49133e-17
0.0908178 0 0
0.131782 0.073268 0.131782
0.139364 0.139364 0.250664
0.123063 0.191818 0.345009
0.0895959 0.225496 0.405583
0.044798 0.2371 0.426455
-0.00566526 0.225496 0.405583
-0.056214 0.191818 0.345009
-0.10158 0.139364 0.250664
-0.137163 0.073268 0.131782
-0.159399 2.90364e-17 5.22257e-17
-0.166073 -0.073268 -0.131782
-0.156509 -0.139364 -0.250664
-0.131636 -0.191818 -0.345009
-0.0938823 -0.225496 -0.405583
-0.0469411 -0.2371 -0.426455
0.00459368 -0.225496 -0.405583
0.0556782 -0.191818 -0.345009
0.101312 -0.139364 -0.250664
0.137029 -0.073268 -0.131782
0.159332 -5.80728e-17 -1.04451e-16
0.125 0 0
0.181382 0.0646983 0.181382
0.191818 0.123063 0.345009
0.169382 0.169382 0.474864
0.123318 0.199121 0.558237
0.0616591 0.209368 0.586965
-0.00779756 0.199121 0.558237
-0.0773719 0.169382 0.474864
-0.139813 0.123063 0.345009
-0.188789 0.0646983 0.181382
-0.219394 2.56402e-17 7.18824e-17
-0.228579 -0.0646983 -0.181382
-0.215417 -0.123063 -0.345009
-0.181182 -0.169382 -0.474864
-0.129218 -0.199121 -0.558237
-0.0646089 -0.209368 -0.586965
0.00632265 -0.199121 -0.558237
0.0766345 -0.169382 -0.474864
0.139444 -0.123063 -0.345009
0.188604 -0.0646983 -0.181382
0.219302 -5.12804e-17 -1.43765e-16
0.146946 0 0
0.213227 0.0471034 0.213227
0.225496 0.0895959 0.405583
0.199121 0.123318 0.558237
0.144969 0.144969 0.656246
0.0724846 0.15243 0.690018
-0.00916659 0.144969 0.656246
-0.0909562 0.123318 0.558237
-0.16436 0.0895959 0.405583
-0.221934 0.0471034 0.213227
-0.257913 1.86673e-17 8.45029e-17
-0.268711 -0.0471034 -0.213227
-0.253238 -0.0895959 -0.405583
-0.212992 -0.123318 -0.558237
-0.151905 -0.144969 -0.656246
-0.0759524 -0.15243 -0.690018
0.00743272 -0.144969 -0.656246
0.0900892 -0.123318 -0.558237
0.163927 -0.0895959 -0.405583
0.221718 -0.0471034 -0.213227
0.257805 -3.73345e-17 -1.69006e-16
0.154508 0 0
0.224201 0.0235517 0.224201
0.2371 0.044798 0.426455
0.209368 0.0616591 0.586965
0.15243 0.0724846 0.690018
0.0762149 0.0762149 0.725528
-0.00963832 0.0724846 0.690018
-0.095637 0.0616591 0.586965
-0.172818 0.044798 0.426455
-0.233356 0.0235517 0.224201
-0.271186 9.33363e-18 8.88516e-17
-0.282539 -0.0235517 -0.224201
-0.26627 -0.044798 -0.426455
-0.223953 -0.0616591 -0.586965
-0.159722 -0.0724846 -0.690018
-0.079861 -0.0762149 -0.725528
0.00781523 -0.0724846 -0.690018
0.0947254 -0.0616591 -0.586965
0.172363 -0.044798 -0.426455
0.233128 -0.0235517 -0.224201
0.271072 -1.86673e-17 -1.77703e-16
0.146946 0 0
0.213227 -0.0029784 0.213227
0.225496 -0.00566526 0.405583
0.199121 -0.00779756 0.558237
0.144969 -0.00916659 0.656246
0.0724846 -0.00963832 0.690018
-0.00916659 -0.00916659 0.656246
-0.0909562 -0.00779756 0.558237
-0.16436 -0.00566526 0.405583
-0.221934 -0.0029784 0.213227
-0.257913 -1.18035e-18 8.45029e-17
-0.268711 0.0029784 -0.213227
-0.253238 0.00566526 -0.405583
-0.212992 0.00779756 -0.558237
-0.151905 0.00916659 -0.656246
-0.0759524 0.00963832 -0.690018
0.00743272 0.00916659 -0.656246
0.0900892 0.00779756 -0.558237
0.163927 0.00566526 -0.405583
0.221718 0.0029784 -0.213227
0.257805 2.36071e-18 -1.69006e-16
0.125 0 0
0.181382 -0.0295535 0.181382
0.191818 -0.056214 0.345009
0.169382 -0.0773719 0.474864
0.123318 -0.0909562 0.558237
0.0616591 -0.095637 0.586965
-0.00779756 -0.0909562 0.558237
-0.0773719 -0.0773719 0.474864
-0.139813 -0.056214 0.345009
-0.188789 -0.0295535 0.181382
-0.219394 -1.17122e-17 7.18824e-17
-0.228579 0.0295535 -0.181382
-0.215417 0.056214 -0.345009
-0.181182 0.0773719 -0.474864
-0.129218 0.0909562 -0.558237
-0.0646089 0.095637 -0.586965
0.00632265 0.0909562 -0.558237
0.0766345 0.0773719 -0.474864
0.139444 0.056214 -0.345009
0.188604 0.0295535 -0.181382
0.219302 2.34243e-17 -1.43765e-16
0.0908178 0 0
0.131782 -0.0534038 0.131782
0.139364 -0.10158 0.250664
0.123063 -0.139813 0.345009
0.0895959 -0.16436 0.405583
0.044798 -0.172818 0.426455
-0.00566526 -0.16436 0.405583
-0.056214 -0.139813 0.345009
-0.10158 -0.10158 0.250664
-0.137163 -0.0534038 0.131782
-0.159399 -2.11642e-17 5.22257e-17
-0.166073 0.0534038 -0.131782
-0.156509 0.10158 -0.250664
-0.131636 0.139813 -0.345009
-0.0938823 0.16436 -0.405583
-0.0469411 0.172818 -0.426455
0.00459368 0.16436 -0.405583
0.0556782 0.139813 -0.345009
0.101312 0.10158 -0.250664
0.137029 0.0534038 -0.131782
0.159332 4.23283e-17 -1.04451e-16
0.0477458 0 0
0.0692818 -0.0721108 0.0692818
0.073268 -0.137163 0.131782
0.0646983 -0.188789 0.181382
0.0471034 -0.221934 0.213227
0.0235517 -0.233356 0.224201
-0.0029784 -0.221934 0.213227
-0.0295535 -0.188789 0.181382
-0.0534038 -0.137163 0.131782
-0.0721108 -0.0721108 0.0692818
-0.0838012 -2.85778e-17 2.74567e-17
-0.0873095 0.0721108 -0.0692818
-0.0822819 0.137163 -0.131782
-0.0692052 0.188789 -0.181382
-0.0493568 0.221934 -0.213227
-0.0246784 0.233356 -0.224201
0.00241504 0.221934 -0.213227
0.0292718 0.188789 -0.181382
0.053263 0.137163 -0.131782
0.0720404 0.0721108 -0.0692818
0.083766 5.71556e-17 -5.49133e-17
1.89218e-17 0 0
2.74567e-17 -0.0838012 2.74567e-17
2.90364e-17 -0.159399 5.22257e-17
2.56402e-17 -0.219394 7.18824e-17
1.86673e-17 -0.257913 8.45029e-17
9.33363e-18 -0.271186 8.88516e-17
-1.18035e-18 -0.257913 8.45029e-17
-1.17122e-17 -0.219394 7.18824e-17
-2.11642e-17 -0.159399 5.22257e-17
-2.85778e-17 -0.0838012 2.74567e-17
-3.32107e-17 -3.32107e-17 1.08812e-32
-3.46011e-17 0.0838012 -2.74567e-17
-3.26086e-17 0.159399 -5.22257e-17
-2.74263e-17 0.219394 -7.18824e-17
-1.95603e-17 0.257913 -8.45029e-17
-9.78016e-18 0.271186 -8.88516e-17
9.57089e-19 0.257913 -8.45029e-17
1.16005e-17 0.219394 -7.18824e-17
2.11083e-17 0.159399 -5.22257e-17
2.85499e-17 0.0838012 -2.74567e-17
3.31968e-17 6.64215e-17 -2.17624e-32
-0.0477458 0 0
-0.0692818 -0.0873095 -0.0692818
-0.073268 -0.166073 -0.131782
-0.0646983 -0.228579 -0.181382
-0.0471034 -0.268711 -0.213227
-0.0235517 -0.282539 -0.224201
0.0029784 -0.268711 -0.213227
0.0295535 -0.228579 -0.181382
0.0534038 -0.166073 -0.131782
0.0721108 -0.0873095 -0.0692818
0.0838012 -3.46011e-17 -2.74567e-17
0.0873095 0.0873095 0.0692818
0.0822819 0.166073 0.131782
0.0692052 0.228579 0.181382
0.0493568 0.268711 0.213227
0.0246784 0.282539 0.224201
-0.00241504 0.268711 0.213227
-0.0292718 0.228579 0.181382
-0.053263 0.166073 0.131782
-0.0720404 0.0873095 0.0692818
-0.083766 6.92022e-17 5.49133e-17
-0.0908178 0 0
-0.131782 -0.0822819 -0.131782
-0.139364 -0.156509 -0.250664
-0.123063 -0.215417 -0.345009
-0.0895959 -0.253238 -0.405583
-0.044798 -0.26627 -0.426455
0.00566526 -0.253238 -0.405583
0.056214 -0.215417 -0.345009
0.10158 -0.156509 -0.250664
0.137163 -0.0822819 -0.131782
0.159399 -3.26086e-17 -5.22257e-17
0.166073 0.0822819 0.131782
0.156509 0.156509 0.250664
0.131636 0.215417 0.345009
0.0938823 0.253238 0.405583
0.0469411 0.26627 0.426455
-0.00459368 0.253238 0.405583
-0.0556782 0.215417 0.345009
-0.101312 0.156509 0.250664
-0.137029 0.0822819 0.131782
-0.159332 6.52173e-17 1.04451e-16
-0.125 0 0
-0.181382 -0.0692052 -0.181382
-0.191818 -0.131636 -0.345009
-0.169382 -0.181182 -0.474864
-0.123318 -0.212992 -0.558237
-0.0616591 -0.223953 -0.586965
0.00779756 -0.212992 -0.558237
0.0773719 -0.181182 -0.474864
0.139813 -0.131636 -0.345009
0.188789 -0.0692052 -0.181382
0.219394 -2.74263e-17 -7.18824e-17
0.228579 0.0692052 0.181382
0.215417 0.131636 0.345009
0.181182 0.181182 0.474864
0.129218 0.212992 0.558237
0.0646089 0.223953 0.586965
-0.00632265 0.212992 0.558237
-0.0766345 0.181182 0.474864
-0.139444 0.131636 0.345009
-0.188604 0.0692052 0.181382
-0.219302 5.48526e-17 1.43765e-16
-0.146946 0 0
-0.213227 -0.0493568 -0.213227
-0.225496 -0.0938823 -0.405583
-0.199121 -0.129218 -0.558237
-0.144969 -0.151905 -0.656246
-0.0724846 -0.159722 -0.690018
0.00916659 -0.151905 -0.656246
0.0909562 -0.129218 -0.558237
0.16436 -0.0938823 -0.405583
0.221934 -0.0493568 -0.213227
0.257913 -1.95603e-17 -8.45029e-17
0.268711 0.0493568 0.213227
0.253238 0.0938823 0.405583
0.212992 0.129218 0.558237
0.151905 0.151905 0.656246
0.0759524 0.159722 0.690018
-0.00743272 0.151905 0.656246
-0.0900892 0.129218 0.558237
-0.163927 0.0938823 0.405583
-0.221718 0.0493568 0.213227
-0.257805 3.91206e-17 1.69006e-16
-0.154508 0 0
-0.224201 -0.0246784 -0.224201
-0.2371 -0.0469411 -0.426455
-0.209368 -0.0646089 -0.586965
-0.15243 -0.0759524 -0.690018
-0.0762149 -0.079861 -0.725528
0.00963832 -0.0759524 -0.690018
0.095637 -0.0646089 -0.586965
0.172818 -0.0469411 -0.426455
0.233356 -0.0246784 -0.224201
0.271186 -9.78016e-18 -8.88516e-17
0.282539 0.0246784 0.224201
0.26627 0.0469411 0.426455
0.223953 0.0646089 0.586965
0.159722 0.0759524 0.690018
0.079861 0.079861 0.725528
-0.00781523 0.0759524 0.690018
-0.0947254 0.0646089 0.586965
-0.172363 0.0469411 0.426455
-0.233128 0.0246784 0.224201
-0.271072 1.95603e-17 1.77703e-16
-0.146946 0 0
-0.213227 0.00241504 -0.213227
-0.225496 0.00459368 -0.405583
-0.199121 0.00632265 -0.558237
-0.144969 0.00743272 -0.656246
-0.0724846 0.00781523 -0.690018
0.00916659 0.00743272 -0.656246
0.0909562 0.00632265 -0.558237
0.16436 0.00459368 -0.405583
0.221934 0.00241504 -0.213227
0.257913 9.57089e-19 -8.45029e-17
0.268711 -0.00241504 0.213227
0.253238 -0.00459368 0.405583
0.212992 -0.00632265 0.558237
0.151905 -0.00743272 0.656246
0.0759524 -0.00781523 0.690018
-0.00743272 -0.00743272 0.656246
-0.0900892 -0.00632265 0.558237
-0.163927 -0.00459368 0.405583
-0.221718 -0.00241504 0.213227
-0.257805 -1.91418e-18 1.69006e-16
-0.125 0 0
-0.181382 0.0292718 -0.181382
-0.191818 0.0556782 -0.345009
-0.169382 0.0766345 -0.474864
-0.123318 0.0900892 -0.558237
-0.0616591 0.0947254 -0.586965
0.00779756 0.0900892 -0.558237
0.0773719 0.0766345 -0.474864
0.139813 0.0556782 -0.345009
0.188789 0.0292718 -0.181382
0.219394 1.16005e-17 -7.18824e-17
0.228579 -0.0292718 0.181382
0.215417 -0.0556782 0.345009
0.181182 -0.0766345 0.474864
0.129218 -0.0900892 0.558237
0.0646089 -0.0947254 0.586965
-0.00632265 -0.0900892 0.558237
-0.0766345 -0.0766345 0.474864
-0.139444 -0.0556782 0.345009
-0.188604 -0.0292718 0.181382
-0.219302 -2.3201e-17 1.43765e-16
-0.0908178 0 0
-0.131782 0.053263 -0.131782
-0.139364 0.101312 -0.250664
-0.123063 0.139444 -0.345009
-0.0895959 0.163927 -0.405583
-0.044798 0.172363 -0.426455
0.00566526 0.163927 -0.405583
0.056214 0.139444 -0.345009
0.10158 0.101312 -0.250664
0.137163 0.053263 -0.131782
0.159399 2.11083e-17 -5.22257e-17
0.166073 -0.053263 0.131782
0.156509 -0.101312 0.250664
0.131636 -0.139444 0.345009
0.0938823 -0.163927 0.405583
0.0469411 -0.172363 0.426455
-0.00459368 -0.163927 0.405583
-0.0556782 -0.139444 0.345009
-0.101312 -0.101312 0.250664
-0.137029 -0.053263 0.131782
-0.159332 -4.22167e-17 1.04451e-16
-0.0477458 0 0
-0.0692818 0.0720404 -0.0692818
-0.073268 0.137029 -0.131782
-0.0646983 0.188604 -0.181382
-0.0471034 0.221718 -0.213227
-0.0235517 0.233128 -0.224201
0.0029784 0.221718 -0.213227
0.0295535 0.188604 -0.181382
0.0534038 0.137029 -0.131782
0.0721108 0.0720404 -0.0692818
0.0838012 2.85499e-17 -2.74567e-17
0.0873095 -0.0720404 0.0692818
0.0822819 -0.137029 0.131782
0.0692052 -0.188604 0.181382
0.0493568 -0.221718 0.213227
0.0246784 -0.233128 0.224201
-0.00241504 -0.221718 0.213227
-0.0292718 -0.188604 0.181382
-0.053263 -0.137029 0.131782
-0.0720404 -0.0720404 0.0692818
-0.083766 -5.70998e-17 5.49133e-17
-3.78437e-17 0 0
-5.49133e-17 0.083766 -5.49133e-17
-5.80728e-17 0.159332 -1.04451e-16
-5.12804e-17 0.219302 -1.43765e-16
-3.73345e-17 0.257805 -1.69006e-16
-1.86673e-17 0.271072 -1.77703e-16
2.36071e-18 0.257805 -1.69006e-16
2.34243e-17 0.219302 -1.43765e-16
4.23283e-17 0.159332 -1.04451e-16
5.71556e-17 0.083766 -5.49133e-17
6.64215e-17 3.31968e-17 -2.17624e-32
6.92022e-17 -0.083766 5.49133e-17
6.52173e-17 -0.159332 1.04451e-16
5.48526e-17 -0.219302 1.43765e-16
3.91206e-17 -0.257805 1.69006e-16
1.95603e-17 -0.271072 1.77703e-16
-1.91418e-18 -0.257805 1.69006e-16
-2.3201e-17 -0.219302 1.43765e-16
-4.22167e-17 -0.159332 1.04451e-16
-5.70998e-17 -0.083766 5.49133e-17
-6.63936e-17 -6.63936e-17 4.35247e-32
0 0 0
0 0.0908178 0
0 0.172746 0
0 0.237764 0
0 0.279508 0
0 0.293893 0
0 0.279508 0
0 0.237764 0
0 0.172746 0
0 0.0908178 0
0 3.59915e-17 0
0 -0.0908178 0
0 -0.172746 0
0 -0.237764 0
0 -0.279508 0
0 -0.293893 0
0 -0.279508 0
0 -0.237764 0
0 -0.172746 0
0 -0.0908178 0
0 -7.19829e-17 0
0.0908178 0 0
0.131782 0.131782 0.073268
0.139364 0.250664 0.139364
0.123063 0.345009 0.191818
0.0895959 0.405583 0.225496
0.044798 0.426455 0.2371
-0.00566526 0.405583 0.225496
-0.056214 0.345009 0.191818
-0.10158 0.250664 0.139364
-0.137163 0.131782 0.073268
-0.159399 5.22257e-17 2.90364e-17
-0.166073 -0.131782 -0.073268
-0.156509 -0.250664 -0.139364
-0.131636 -0.345009 -0.191818
-0.0938823 -0.405583 -0.225496
-0.0469411 -0.426455 -0.2371
0.00459368 -0.405583 -0.225496
0.0556782 -0.345009 -0.191818
0.101312 -0.250664 -0.139364
0.137029 -0.131782 -0.073268
0.159332 -1.04451e-16 -5.80728e-17
0.172746 0 0
0.250664 0.139364 0.139364
0.265086 0.265086 0.265086
0.23408 0.36486 0.36486
0.170422 0.428918 0.428918
0.0852108 0.450992 0.450992
-0.010776 0.428918 0.428918
-0.106925 0.36486 0.36486
-0.193217 0.265086 0.265086
-0.260899 0.139364 0.139364
-0.303195 5.52305e-17 5.52305e-17
-0.315889 -0.139364 -0.139364
-0.297699 -0.265086 -0.265086
-0.250387 -0.36486 -0.36486
-0.178575 -0.428918 -0.428918
-0.0892874 -0.450992 -0.450992
0.00873769 -0.428918 -0.428918
0.105906 -0.36486 -0.36486
0.192707 -0.265086 -0.265086
0.260645 -0.139364 -0.139364