# vtk DataFile Version 2.0 
Visualization 
ASCII 
DATASET STRUCTURED_GRID 
DIMENSIONS 21 21 11
POINTS 4851 float
-0.1 -0.1 -0.1
0 -0.1 -0.1
0.1 -0.1 -0.1
0.2 -0.1 -0.1
0.3 -0.1 -0.1
0.4 -0.1 -0.1
0.5 -0.1 -0.1
0.6 -0.1 -0.1
0.7 -0.1 -0.1
0.8 -0.1 -0.1
0.9 -0.1 -0.1
1 -0.1 -0.1
1.1 -0.1 -0.1
1.2 -0.1 -0.1
1.3 -0.1 -0.1
1.4 -0.1 -0.1
1.5 -0.1 -0.1
1.6 -0.1 -0.1
1.7 -0.1 -0.1
1.8 -0.1 -0.1
1.9 -0.1 -0.1
-0.1 0 -0.1
0 0 -0.1
0.1 0 -0.1
0.2 0 -0.1
0.3 0 -0.1
0.4 0 -0.1
0.5 0 -0.1
0.6 0 -0.1
0.7 0 -0.1
0.8 0 -0.1
0.9 0 -0.1
1 0 -0.1
1.1 0 -0.1
1.2 0 -0.1
1.3 0 -0.1
1.4 0 -0.1
1.5 0 -0.1
1.6 0 -0.1
1.7 0 -0.1
1.8 0 -0.1
1.9 0 -0.1
-0.1 0.1 -0.1
0 0.1 -0.1
0.1 0.1 -0.1
0.2 0.1 -0.1
0.3 0.1 -0.1
0.4 0.1 -0.1
0.5 0.1 -0.1
0.6 0.1 -0.1
0.7 0.1 -0.1
0.8 0.1 -0.1
0.9 0.1 -0.1
1 0.1 -0.1
1.1 0.1 -0.1
1.2 0.1 -0.1
1.3 0.1 -0.1
1.4 0.1 -0.1
1.5 0.1 -0.1
1.6 0.1 -0.1
1.7 0.1 -0.1
1.8 0.1 -0.1
1.9 0.1 -0.1
-0.1 0.2 -0.1
0 0.2 -0.1
0.1 0.2 -0.1
0.2 0.2 -0.1
0.3 0.2 -0.1
0.4 0.2 -0.1
0.5 0.2 -0.1
0.6 0.2 -0.1
0.7 0.2 -0.1
0.8 0.2 -0.1
0.9 0.2 -0.1
1 0.2 -0.1
1.1 0.2 -0.1
1.2 0.2 -0.1
1.3 0.2 -0.1
1.4 0.2 -0.1
1.5 0.2 -0.1
1.6 0.2 -0.1
1.7 0.2 -0.1
1.8 0.2 -0.1
1.9 0.2 -0.1
-0.1 0.3 -0.1
0 0.3 -0.1
0.1 0.3 -0.1
0.2 0.3 -0.1
0.3 0.3 -0.1
0.4 0.3 -0.1
0.5 0.3 -0.1
0.6 0.3 -0.1
0.7 0.3 -0.1
0.8 0.3 -0.1
0.9 0.3 -0.1
1 0.3 -0.1
1.1 0.3 -0.1
1.2 0.3 -0.1
1.3 0.3 -0.1
1.4 0.3 -0.1
1.5 0.3 -0.1
1.6 0.3 -0.1
1.7 0.3 -0.1
1.8 0.3 -0.1
1.9 0.3 -0.1
-0.1 0.4 -0.1
0 0.4 -0.1
0.1 0.4 -0.1
0.2 0.4 -0.1
0.3 0.4 -0.1
0.4 0.4 -0.1
0.5 0.4 -0.1
0.6 0.4 -0.1
0.7 0.4 -0.1
0.8 0.4 -0.1
0.9 0.4 -0.1
1 0.4 -0.1
1.1 0.4 -0.1
1.2 0.4 -0.1
1.3 0.4 -0.1
1.4 0.4 -0.1
1.5 0.4 -0.1
1.6 0.4 -0.1
1.7 0.4 -0.1
1.8 0.4 -0.1
1.9 0.4 -0.1
-0.1 0.5 -0.1
0 0.5 -0.1
0.1 0.5 -0.1
0.2 0.5 -0.1
0.3 0.5 -0.1
0.4 0.5 -0.1
0.5 0.5 -0.1
0.6 0.5 -0.1
0.7 0.5 -0.1
0.8 0.5 -0.1
0.9 0.5 -0.1
1 0.5 -0.1
1.1 0.5 -0.1
1.2 0.5 -0.1
1.3 0.5 -0.1
1.4 0.5 -0.1
1.5 0.5 -0.1
1.6 0.5 -0.1
1.7 0.5 -0.1
1.8 0.5 -0.1
1.9 0.5 -0.1
-0.1 0.6 -0.1
0 0.6 -0.1
0.1 0.6 -0.1
0.2 0.6 -0.1
0.3 0.6 -0.1
0.4 0.6 -0.1
0.5 0.6 -0.1
0.6 0.6 -0.1
0.7 0.6 -0.1
0.8 0.6 -0.1
0.9 0.6 -0.1
1 0.6 -0.1
1.1 0.6 -0.1
1.2 0.6 -0.1
1.3 0.6 -0.1
1.4 0.6 -0.1
1.5 0.6 -0.1
1.6 0.6 -0.1
1.7 0.6 -0.1
1.8 0.6 -0.1
1.9 0.6 -0.1
-0.1 0.7 -0.1
0 0.7 -0.1
0.1 0.7 -0.1
0.2 0.7 -0.1
0.3 0.7 -0.1
0.4 0.7 -0.1
0.5 0.7 -0.1
0.6 0.7 -0.1
0.7 0.7 -0.1
0.8 0.7 -0.1
0.9 0.7 -0.1
1 0.7 -0.1
1.1 0.7 -0.1
1.2 0.7 -0.1
1.3 0.7 -0.1
1.4 0.7 -0.1
1.5 0.7 -0.1
1.6 0.7 -0.1
1.7 0.7 -0.1
1.8 0.7 -0.1
1.9 0.7 -0.1
-0.1 0.8 -0.1
0 0.8 -0.1
0.1 0.8 -0.1
0.2 0.8 -0.1
0.3 0.8 -0.1
0.4 0.8 -0.1
0.5 0.8 -0.1
0.6 0.8 -0.1
0.7 0.8 -0.1
0.8 0.8 -0.1
0.9 0.8 -0.1
1 0.8 -0.1
1.1 0.8 -0.1
1.2 0.8 -0.1
1.3 0.8 -0.1
1.4 0.8 -0.1
1.5 0.8 -0.1
1.6 0.8 -0.1
1.7 0.8 -0.1
1.8 0.8 -0.1
1.9 0.8 -0.1
-0.1 0.9 -0.1
0 0.9 -0.1
0.1 0.9 -0.1
0.2 0.9 -0.1
0.3 0.9 -0.1
0.4 0.9 -0.1
0.5 0.9 -0.1
0.6 0.9 -0.1
0.7 0.9 -0.1
0.8 0.9 -0.1
0.9 0.9 -0.1
1 0.9 -0.1
1.1 0.9 -0.1
1.2 0.9 -0.1
1.3 0.9 -0.1
1.4 0.9 -0.1
1.5 0.9 -0.1
1.6 0.9 -0.1
1.7 0.9 -0.1
1.8 0.9 -0.1
1.9 0.9 -0.1
-0.1 1 -0.1
0 1 -0.1
0.1 1 -0.1
0.2 1 -0.1
0.3 1 -0.1
0.4 1 -0.1
0.5 1 -0.1
0.6 1 -0.1
0.7 1 -0.1
0.8 1 -0.1
0.9 1 -0.1
1 1 -0.1
1.1 1 -0.1
1.2 1 -0.1
1.3 1 -0.1
1.4 1 -0.1
1.5 1 -0.1
1.6 1 -0.1
1.7 1 -0.1
1.8 1 -0.1
1.9 1 -0.1
-0.1 1.1 -0.1
0 1.1 -0.1
0.1 1.1 -0.1
0.2 1.1 -0.1
0.3 1.1 -0.1
0.4 1.1 -0.1
0.5 1.1 -0.1
0.6 1.1 -0.1
0.7 1.1 -0.1
0.8 1.1 -0.1
0.9 1.1 -0.1
1 1.1 -0.1
1.1 1.1 -0.1
1.2 1.1 -0.1
1.3 1.1 -0.1
1.4 1.1 -0.1
1.5 1.1 -0.1
1.6 1.1 -0.1
1.7 1.1 -0.1
1.8 1.1 -0.1
1.9 1.1 -0.1
-0.1 1.2 -0.1
0 1.2 -0.1
0.1 1.2 -0.1
0.2 1.2 -0.1
0.3 1.2 -0.1
0.4 1.2 -0.1
0.5 1.2 -0.1
0.6 1.2 -0.1
0.7 1.2 -0.1
0.8 1.2 -0.1
0.9 1.2 -0.1
1 1.2 -0.1
1.1 1.2 -0.1
1.2 1.2 -0.1
1.3 1.2 -0.1
1.4 1.2 -0.1
1.5 1.2 -0.1
1.6 1.2 -0.1
1.7 1.2 -0.1
1.8 1.2 -0.1
1.9 1.2 -0.1
-0.1 1.3 -0.1
0 1.3 -0.1
0.1 1.3 -0.1
0.2 1.3 -0.1
0.3 1.3 -0.1
0.4 1.3 -0.1
0.5 1.3 -0.1
0.6 1.3 -0.1
0.7 1.3 -0.1
0.8 1.3 -0.1
0.9 1.3 -0.1
1 1.3 -0.1
1.1 1.3 -0.1
1.2 1.3 -0.1
1.3 1.3 -0.1
1.4 1.3 -0.1
1.5 1.3 -0.1
1.6 1.3 -0.1
1.7 1.3 -0.1
1.8 1.3 -0.1
1.9 1.3 -0.1
-0.1 1.4 -0.1
0 1.4 -0.1
0.1 1.4 -0.1
0.2 1.4 -0.1
0.3 1.4 -0.1
0.4 1.4 -0.1
0.5 1.4 -0.1
0.6 1.4 -0.1
0.7 1.4 -0.1
0.8 1.4 -0.1
0.9 1.4 -0.1
1 1.4 -0.1
1.1 1.4 -0.1
1.2 1.4 -0.1
1.3 1.4 -0.1
1.4 1.4 -0.1
1.5 1.4 -0.1
1.6 1.4 -0.1
1.7 1.4 -0.1
1.8 1.4 -0.1
1.9 1.4 -0.1
-0.1 1.5 -0.1
0 1.5 -0.1
0.1 1.5 -0.1
0.2 1.5 -0.1
0.3 1.5 -0.1
0.4 1.5 -0.1
0.5 1.5 -0.1
0.6 1.5 -0.1
0.7 1.5 -0.1
0.8 1.5 -0.1
0.9 1.5 -0.1
1 1.5 -0.1
1.1 1.5 -0.1
1.2 1.5 -0.1
1.3 1.5 -0.1
1.4 1.5 -0.1
1.5 1.5 -0.1
1.6 1.5 -0.1
1.7 1.5 -0.1
1.8 1.5 -0.1
1.9 1.5 -0.1
-0.1 1.6 -0.1
0 1.6 -0.1
0.1 1.6 -0.1
0.2 1.6 -0.1
0.3 1.6 -0.1
0.4 1.6 -0.1
0.5 1.6 -0.1
0.6 1.6 -0.1
0.7 1.6 -0.1
0.8 1.6 -0.1
0.9 1.6 -0.1
1 1.6 -0.1
1.1 1.6 -0.1
1.2 1.6 -0.1
1.3 1.6 -0.1
1.4 1.6 -0.1
1.5 1.6 -0.1
1.6 1.6 -0.1
1.7 1.6 -0.1
1.8 1.6 -0.1
1.9 1.6 -0.1
-0.1 1.7 -0.1
0 1.7 -0.1
0.1 1.7 -0.1
0.2 1.7 -0.1
0.3 1.7 -0.1
0.4 1.7 -0.1
0.5 1.7 -0.1
0.6 1.7 -0.1
0.7 1.7 -0.1
0.8 1.7 -0.1
0.9 1.7 -0.1
1 1.7 -0.1
1.1 1.7 -0.1
1.2 1.7 -0.1
1.3 1.7 -0.1
1.4 1.7 -0.1
1.5 1.7 -0.1
1.6 1.7 -0.1
1.7 1.7 -0.1
1.8 1.7 -0.1
1.9 1.7 -0.1
-0.1 1.8 -0.1
0 1.8 -0.1
0.1 1.8 -0.1
0.2 1.8 -0.1
0.3 1.8 -0.1
0.4 1.8 -0.1
0.5 1.8 -0.1
0.6 1.8 -0.1
0.7 1.8 -0.1
0.8 1.8 -0.1
0.9 1.8 -0.1
1 1.8 -0.1
1.1 1.8 -0.1
1.2 1.8 -0.1
1.3 1.8 -0.1
1.4 1.8 -0.1
1.5 1.8 -0.1
1.6 1.8 -0.1
1.7 1.8 -0.1
1.8 1.8 -0.1
1.9 1.8 -0.1
-0.1 1.9 -0.1
0 1.9 -0.1
0.1 1.9 -0.1
0.2 1.9 -0.1
0.3 1.9 -0.1
0.4 1.9 -0.1
0.5 1.9 -0.1
0.6 1.9 -0.1
0.7 1.9 -0.1
0.8 1.9 -0.1
0.9 1.9 -0.1
1 1.9 -0.1
1.1 1.9 -0.1
1.2 1.9 -0.1
1.3 1.9 -0.1
1.4 1.9 -0.1
1.5 1.9 -0.1
1.6 1.9 -0.1
1.7 1.9 -0.1
1.8 1.9 -0.1
1.9 1.9 -0.1
-0.1 -0.1 0
0 -0.1 0
0.1 -0.1 0
0.2 -0.1 0
0.3 -0.1 0
0.4 -0.1 0
0.5 -0.1 0
0.6 -0.1 0
0.7 -0.1 0
0.8 -0.1 0
0.9 -0.1 0
1 -0.1 0
1.1 -0.1 0
1.2 -0.1 0
1.3 -0.1 0
1.4 -0.1 0
1.5 -0.1 0
1.6 -0.1 0
1.7 -0.1 0
1.8 -0.1 0
1.9 -0.1 0
-0.1 0 0
0 0 0
0.1 0 0
0.2 0 0
0.3 0 0
0.4 0 0
0.5 0 0
0.6 0 0
0.7 0 0
0.8 0 0
0.9 0 0
1 0 0
1.1 0 0
1.2 0 0
1.3 0 0
1.4 0 0
1.5 0 0
1.6 0 0
1.7 0 0
1.8 0 0
1.9 0 0
-0.1 0.1 0
0 0.1 0
0.1 0.1 0
0.2 0.1 0
0.3 0.1 0
0.4 0.1 0
0.5 0.1 0
0.6 0.1 0
0.7 0.1 0
0.8 0.1 0
0.9 0.1 0
1 0.1 0
1.1 0.1 0
1.2 0.1 0
1.3 0.1 0
1.4 0.1 0
1.5 0.1 0
1.6 0.1 0
1.7 0.1 0
1.8 0.1 0
1.9 0.1 0
-0.1 0.2 0
0 0.2 0
0.1 0.2 0
0.2 0.2 0
0.3 0.2 0
0.4 0.2 0
0.5 0.2 0
0.6 0.2 0
0.7 0.2 0
0.8 0.2 0
0.9 0.2 0
1 0.2 0
1.1 0.2 0
1.2 0.2 0
1.3 0.2 0
1.4 0.2 0
1.5 0.2 0
1.6 0.2 0
1.7 0.2 0
1.8 0.2 0
1.9 0.2 0
-0.1 0.3 0
0 0.3 0
0.1 0.3 0
0.2 0.3 0
0.3 0.3 0
0.4 0.3 0
0.5 0.3 0
0.6 0.3 0
0.7 0.3 0
0.8 0.3 0
0.9 0.3 0
1 0.3 0
1.1 0.3 0
1.2 0.3 0
1.3 0.3 0
1.4 0.3 0
1.5 0.3 0
1.6 0.3 0
1.7 0.3 0
1.8 0.3 0
1.9 0.3 0
-0.1 0.4 0
0 0.4 0
0.1 0.4 0
0.2 0.4 0
0.3 0.4 0
0.4 0.4 0
0.5 0.4 0
0.6 0.4 0
0.7 0.4 0
0.8 0.4 0
0.9 0.4 0
1 0.4 0
1.1 0.4 0
1.2 0.4 0
1.3 0.4 0
1.4 0.4 0
1.5 0.4 0
1.6 0.4 0
1.7 0.4 0
1.8 0.4 0
1.9 0.4 0
-0.1 0.5 0
0 0.5 0
0.1 0.5 0
0.2 0.5 0
0.3 0.5 0
0.4 0.5 0
0.5 0.5 0
0.6 0.5 0
0.7 0.5 0
0.8 0.5 0
0.9 0.5 0
1 0.5 0
1.1 0.5 0
1.2 0.5 0
1.3 0.5 0
1.4 0.5 0
1.5 0.5 0
1.6 0.5 0
1.7 0.5 0
1.8 0.5 0
1.9 0.5 0
-0.1 0.6 0
0 0.6 0
0.1 0.6 0
0.2 0.6 0
0.3 0.6 0
0.4 0.6 0
0.5 0.6 0
0.6 0.6 0
0.7 0.6 0
0.8 0.6 0
0.9 0.6 0
1 0.6 0
1.1 0.6 0
1.2 0.6 0
1.3 0.6 0
1.4 0.6 0
1.5 0.6 0
1.6 0.6 0
1.7 0.6 0
1.8 0.6 0
1.9 0.6 0
-0.1 0.7 0
0 0.7 0
0.1 0.7 0
0.2 0.7 0
0.3 0.7 0
0.4 0.7 0
0.5 0.7 0
0.6 0.7 0
0.7 0.7 0
0.8 0.7 0
0.9 0.7 0
1 0.7 0
1.1 0.7 0
1.2 0.7 0
1.3 0.7 0
1.4 0.7 0
1.5 0.7 0
1.6 0.7 0
1.7 0.7 0
1.8 0.7 0
1.9 0.7 0
-0.1 0.8 0
0 0.8 0
0.1 0.8 0
0.2 0.8 0
0.3 0.8 0
0.4 0.8 0
0.5 0.8 0
0.6 0.8 0
0.7 0.8 0
0.8 0.8 0
0.9 0.8 0
1 0.8 0
1.1 0.8 0
1.2 0.8 0
1.3 0.8 0
1.4 0.8 0
1.5 0.8 0
1.6 0.8 0
1.7 0.8 0
1.8 0.8 0
1.9 0.8 0
-0.1 0.9 0
0 0.9 0
0.1 0.9 0
0.2 0.9 0
0.3 0.9 0
0.4 0.9 0
0.5 0.9 0
0.6 0.9 0
0.7 0.9 0
0.8 0.9 0
0.9 0.9 0
1 0.9 0
1.1 0.9 0
1.2 0.9 0
1.3 0.9 0
1.4 0.9 0
1.5 0.9 0
1.6 0.9 0
1.7 0.9 0
1.8 0.9 0
1.9 0.9 0
-0.1 1 0
0 1 0
0.1 1 0
0.2 1 0
0.3 1 0
0.4 1 0
0.5 1 0
0.6 1 0
0.7 1 0
0.8 1 0
0.9 1 0
1 1 0
1.1 1 0
1.2 1 0
1.3 1 0
1.4 1 0
1.5 1 0
1.6 1 0
1.7 1 0
1.8 1 0
1.9 1 0
-0.1 1.1 0
0 1.1 0
0.1 1.1 0
0.2 1.1 0
0.3 1.1 0
0.4 1.1 0
0.5 1.1 0
0.6 1.1 0
0.7 1.1 0
0.8 1.1 0
0.9 1.1 0
1 1.1 0
1.1 1.1 0
1.2 1.1 0
1.3 1.1 0
1.4 1.1 0
1.5 1.1 0
1.6 1.1 0
1.7 1.1 0
1.8 1.1 0
1.9 1.1 0
-0.1 1.2 0
0 1.2 0
0.1 1.2 0
0.2 1.2 0
0.3 1.2 0
0.4 1.2 0
0.5 1.2 0
0.6 1.2 0
0.7 1.2 0
0.8 1.2 0
0.9 1.2 0
1 1.2 0
1.1 1.2 0
1.2 1.2 0
1.3 1.2 0
1.4 1.2 0
1.5 1.2 0
1.6 1.2 0
1.7 1.2 0
1.8 1.2 0
1.9 1.2 0
-0.1 1.3 0
0 1.3 0
0.1 1.3 0
0.2 1.3 0
0.3 1.3 0
0.4 1.3 0
0.5 1.3 0
0.6 1.3 0
0.7 1.3 0
0.8 1.3 0
0.9 1.3 0
1 1.3 0
1.1 1.3 0
1.2 1.3 0
1.3 1.3 0
1.4 1.3 0
1.5 1.3 0
1.6 1.3 0
1.7 1.3 0
1.8 1.3 0
1.9 1.3 0
-0.1 1.4 0
0 1.4 0
0.1 1.4 0
0.2 1.4 0
0.3 1.4 0
0.4 1.4 0
0.5 1.4 0
0.6 1.4 0
0.7 1.4 0
0.8 1.4 0
0.9 1.4 0
1 1.4 0
1.1 1.4 0
1.2 1.4 0
1.3 1.4 0
1.4 1.4 0
1.5 1.4 0
1.6 1.4 0
1.7 1.4 0
1.8 1.4 0
1.9 1.4 0
-0.1 1.5 0
0 1.5 0
0.1 1.5 0
0.2 1.5 0
0.3 1.5 0
0.4 1.5 0
0.5 1.5 0
0.6 1.5 0
0.7 1.5 0
0.8 1.5 0
0.9 1.5 0
1 1.5 0
1.1 1.5 0
1.2 1.5 0
1.3 1.5 0
1.4 1.5 0
1.5 1.5 0
1.6 1.5 0
1.7 1.5 0
1.8 1.5 0
1.9 1.5 0
-0.1 1.6 0
0 1.6 0
0.1 1.6 0
0.2 1.6 0
0.3 1.6 0
0.4 1.6 0
0.5 1.6 0
0.6 1.6 0
0.7 1.6 0
0.8 1.6 0
0.9 1.6 0
1 1.6 0
1.1 1.6 0
1.2 1.6 0
1.3 1.6 0
1.4 1.6 0
1.5 1.6 0
1.6 1.6 0
1.7 1.6 0
1.8 1.6 0
1.9 1.6 0
-0.1 1.7 0
0 1.7 0
0.1 1.7 0
0.2 1.7 0
0.3 1.7 0
0.4 1.7 0
0.5 1.7 0
0.6 1.7 0
0.7 1.7 0
0.8 1.7 0
0.9 1.7 0
1 1.7 0
1.1 1.7 0
1.2 1.7 0
1.3 1.7 0
1.4 1.7 0
1.5 1.7 0
1.6 1.7 0
1.7 1.7 0
1.8 1.7 0
1.9 1.7 0
-0.1 1.8 0
0 1.8 0
0.1 1.8 0
0.2 1.8 0
0.3 1.8 0
0.4 1.8 0
0.5 1.8 0
0.6 1.8 0
0.7 1.8 0
0.8 1.8 0
0.9 1.8 0
1 1.8 0
1.1 1.8 0
1.2 1.8 0
1.3 1.8 0
1.4 1.8 0
1.5 1.8 0
1.6 1.8 0
1.7 1.8 0
1.8 1.8 0
1.9 1.8 0
-0.1 1.9 0
0 1.9 0
0.1 1.9 0
0.2 1.9 0
0.3 1.9 0
0.4 1.9 0
0.5 1.9 0
0.6 1.9 0
0.7 1.9 0
0.8 1.9 0
0.9 1.9 0
1 1.9 0
1.1 1.9 0
1.2 1.9 0
1.3 1.9 0
1.4 1.9 0
1.5 1.9 0
1.6 1.9 0
1.7 1.9 0
1.8 1.9 0
[...]
CELL_DATA 4000
VECTORS velocity double 
-2.84259e-05 0.000252124 -0.000223698
-3.12939e-05 0.000297737 -0.000253317
-2.76186e-05 0.000302833 -0.000262364
-1.6265e-05 0.000303477 -0.000268241
2.42918e-06 0.000303698 -0.000272009
2.66547e-05 0.000304274 -0.000274412
5.40589e-05 0.000305335 -0.000275921
8.22596e-05 0.000306872 -0.000276693
0.000108873 0.000308847 -0.000276703
0.000131496 0.000311146 -0.000275893
0.000147812 0.000313594 -0.000274191
0.000155834 0.00031604 -0.000271473
0.000153967 0.00031822 -0.000267751
0.000141172 0.000319739 -0.000263267
0.000117478 0.000320154 -0.00025833
8.42505e-05 0.000319127 -0.00025328
4.42466e-05 0.000316318 -0.00024839
1.67829e-06 0.000311369 -0.000244136
-3.77644e-05 0.000302699 -0.000239812
-1.88822e-05 0.000262921 -0.00021243
-1.68792e-05 0.000739946 -0.000289175
-2.07076e-05 0.000871349 -0.000338123
-2.01452e-05 0.000886307 -0.000352199
-1.07898e-05 0.000888371 -0.000360428
8.04167e-06 0.0008886 -0.000365412
3.47338e-05 0.000889287 -0.000368399
6.68132e-05 0.000891016 -0.000370096
0.000101571 0.000893927 -0.000370726
0.000136081 0.00089799 -0.000370318
0.00016724 0.000903001 -0.000368816
0.000191999 0.000908654 -0.000366084
0.000207471 0.000914511 -0.000362007
0.000211026 0.000919836 -0.00035668
0.00020065 0.000923711 -0.000350472
0.000175656 0.000925152 -0.000343613
0.000136879 0.000923118 -0.000336511
8.68926e-05 0.000916596 -0.000329761
3.02111e-05 0.000904435 -0.000324124
-2.47352e-05 0.000880846 -0.000318441
-1.23676e-05 0.000753264 -0.000280333
-4.22939e-06 0.00139953 -0.000365803
-4.52589e-06 0.00166852 -0.000429538
-4.79583e-06 0.00170027 -0.000447793
2.85085e-06 0.00170516 -0.000458288
2.04371e-05 0.00170557 -0.000464504
4.67522e-05 0.00170606 -0.000468082
7.94334e-05 0.00170794 -0.000469921
0.00011571 0.00171163 -0.000470361
0.000152473 0.00171716 -0.000469489
0.000186386 0.00172432 -0.000467233
0.000214046 0.00173266 -0.000463425
0.000232038 0.00174142 -0.000458005
0.000237143 0.0017495 -0.000451083
0.000226793 0.00175539 -0.000442942
0.000199661 0.00175741 -0.00043392
0.000156028 0.00175374 -0.000424652
9.80973e-05 0.0017427 -0.00041588
3.0597e-05 0.001722 -0.000408476
-3.55956e-05 0.00167769 -0.000401603
-1.77978e-05 0.00141258 -0.000354882
1.08814e-05 0.00222684 -0.000463327
1.63502e-05 0.00269295 -0.000543609
1.59652e-05 0.00275053 -0.00056617
2.17353e-05 0.00276032 -0.000579168
3.75292e-05 0.00276148 -0.000586793
6.27791e-05 0.00276167 -0.000591074
9.5295e-05 0.00276321 -0.000593138
0.000132267 0.0027669 -0.000593448
0.000170453 0.00277293 -0.000592137
0.000206256 0.0027811 -0.000589133
0.000235863 0.00279088 -0.000584271
0.000255424 0.00280131 -0.000577447
0.000261045 0.00281091 -0.000568733
0.000249497 0.00281764 -0.000558343
0.000218739 0.00281909 -0.000546856
0.000168605 0.00281261 -0.000535052
0.000100917 0.00279589 -0.000523987
2.09227e-05 0.0027652 -0.000514639
-5.62444e-05 0.00269316 -0.000506302
-2.81222e-05 0.00223442 -0.000448524
2.94673e-05 0.00323158 -0.000575486
4.32908e-05 0.00396197 -0.000673703
4.36808e-05 0.00405666 -0.000700453
4.73847e-05 0.00407406 -0.000715997
6.06481e-05 0.00407686 -0.000725145
8.38569e-05 0.00407678 -0.000730228
0.000115151 0.0040775 -0.000732607
0.00015177 0.00408034 -0.000732885
0.000190337 0.0040857 -0.000731252
0.000227052 0.00409346 -0.000727613
0.000257766 0.00410311 -0.000721796
0.0002781 0.00411359 -0.000713536
0.000283496 0.00412305 -0.000702955
0.000269919 0.00412895 -0.000690328
0.000234528 0.00412828 -0.00067636
0.00017672 0.00411776 -0.000661735
9.81168e-05 0.00409411 -0.000647957
4.68e-06 0.00405139 -0.000636638
-8.30455e-05 0.00394253 -0.000627042
-4.15227e-05 0.00322716 -0.000556389
5.22157e-05 0.00442318 -0.000696448
7.75775e-05 0.00549218 -0.000812895
7.99845e-05 0.00563739 -0.000843356
8.15369e-05 0.00566567 -0.000861331
9.1436e-05 0.00567114 -0.000872067
0.000111408 0.00567099 -0.000878051
0.000140105 0.00567055 -0.000880845
0.000174889 0.00567178 -0.000881216
0.000212344 0.00567532 -0.000879449
0.000248552 0.00568128 -0.00087537
0.000279085 0.00568923 -0.000868706
0.000299009 0.00569802 -0.000859192
0.000303054 0.00570555 -0.000846938
0.000286428 0.00570895 -0.000832065
0.000245551 0.00570456 -0.00081554
0.000179044 0.00568843 -0.000798208
8.82867e-05 0.00565621 -0.000781866
-1.94952e-05 0.00559903 -0.000768568
-0.000117043 0.00544238 -0.000757805
-5.85217e-05 0.00440017 -0.000673457
7.95782e-05 0.00580469 -0.000820415
0.000120114 0.00729278 -0.000954243
0.000126063 0.0075037 -0.000987593
0.000125452 0.00754642 -0.00100774
0.000131169 0.00755577 -0.00102
0.000146664 0.00755592 -0.00102688
0.000171249 0.00755418 -0.00103018
0.00020249 0.00755321 -0.00103084
0.000237099 0.00755406 -0.00102915
0.000271122 0.00755709 -0.00102483
0.000299865 0.00756202 -0.00101759
0.000317868 0.00756757 -0.00100716
0.000319253 0.00757156 -0.000993614
0.000298373 0.00757094 -0.000976842
0.000250796 0.00756132 -0.000957827
0.000174277 0.00753803 -0.000937912
7.01862e-05 0.00749567 -0.000919071
-5.26941e-05 0.00742123 -0.000904082
-0.000159475 0.00720374 -0.000892623
-7.97374e-05 0.00575806 -0.000794441
0.000111595 0.00737021 -0.000941566
0.000171086 0.00936231 -0.00109086
0.000182222 0.00965538 -0.0011259
0.000179584 0.00971619 -0.00114769
0.000180446 0.00973063 -0.00116122
0.000190306 0.00973155 -0.00116892
0.000209274 0.00972849 -0.00117283
0.000235297 0.00972503 -0.00117398
0.000265345 0.00972271 -0.00117259
0.000295475 0.00972212 -0.00116838
0.000320666 0.00972305 -0.00116112
0.000335133 0.00972444 -0.00115026
0.000332502 0.00972397 -0.00113571
0.000306042 0.00971822 -0.00111766
0.000250409 0.00970239 -0.00109677
0.000162548 0.0096709 -0.00107466
4.38328e-05 0.00961723 -0.00105359
-9.50893e-05 0.00952244 -0.00103724
-0.00021049 0.00922917 -0.00102569
-0.000105245 0.00729818 -0.000913683
0.000147802 0.00910472 -0.00105467
0.000229717 0.0116879 -0.00121665
0.000247583 0.0120801 -0.00125179
0.000243167 0.0121623 -0.00127435
0.000238663 0.0121827 -0.00128875
0.000241883 0.0121847 -0.0012972
0.000253963 0.0121805 -0.00130179
0.000273432 0.0121747 -0.00130357
0.000297456 0.0121692 -0.00130282
0.000322129 0.0121648 -0.00129918
0.000342409 0.0121616 -0.00129235
0.000352062 0.0121587 -0.00128186
0.000344116 0.0121538 -0.00126707
0.00031096 0.012143 -0.00124839
0.000246093 0.012121 -0.00122647
0.000145726 0.0120815 -0.00120277
1.09475e-05 0.012016 -0.00118012
-0.000145165 0.011898 -0.0011628
-0.000268499 0.0115124 -0.00115174
-0.000134249 0.00900926 -0.00102681
0.000187009 0.0109865 -0.00115651
0.000293859 0.0142475 -0.00132795
0.000319577 0.0147554 -0.00136126
0.00031355 0.0148614 -0.0013835
0.000303298 0.0148879 -0.00139821
0.000299241 0.0148911 -0.00140718
0.000303743 0.014886 -0.0014124
0.000315793 0.0148782 -0.00141494
0.000332901 0.0148699 -0.00141511
0.000351204 0.0148625 -0.00141264
0.000365803 0.014856 -0.00140673
0.000370144 0.0148497 -0.00139721
0.000356328 0.0148416 -0.00138346
0.000316004 0.0148273 -0.00136523
0.000241469 0.0148011 -0.00134321
0.000127694 0.0147554 -0.00131888
-2.44346e-05 0.0146792 -0.00129556
-0.000199197 0.0145359 -0.00127827
-0.000330916 0.01404 -0.00126819
-0.000165458 0.0108748 -0.00113145
0.00022711 0.0129932 -0.00124798
0.000359589 0.0170165 -0.00142606
0.000393285 0.017655 -0.00145548
0.000385495 0.017785 -0.00147606
0.000369343 0.0178167 -0.00149034
0.000357931 0.0178205 -0.00149943
0.000354806 0.0178148 -0.00150504
0.000359341 0.0178057 -0.00150842
0.000369513 0.0177957 -0.00150966
0.000381621 0.0177864 -0.00150879
0.000390811 0.0177784 -0.00150467
0.000390255 0.0177711 -0.00149696
0.000371481 0.0177624 -0.0014851
0.000325036 0.0177484 -0.00146859
0.000241658 0.0177225 -0.00144786
0.000114534 0.0176752 -0.00142447
-5.57285e-05 0.0175923 -0.00140161
-0.000250824 0.0174233 -0.00138531
-0.000392725 0.0167987 -0.00137712
-0.000196363 0.0128791 -0.00122862
0.000264911 0.0151136 -0.00133706
0.000420675 0.0199803 -0.0015208
0.00046063 0.0207609 -0.00154444
0.000450285 0.0209125 -0.00156194
0.000428254 0.0209462 -0.00157483
0.000410063 0.0209494 -0.00158343
0.0004001 0.0209428 -0.00158915
0.00039807 0.0209329 -0.00159343
0.000402414 0.0209226 -0.00159572
0.000409756 0.0209131 -0.00159638
0.000415263 0.0209058 -0.00159452
0.000412013 0.0209006 -0.00158957
0.000391169 0.0208961 -0.00158061
0.000341954 0.0208884 -0.00156712
0.00025286 0.0208702 -0.00154939
0.000114902 0.0208301 -0.00152857
-7.30077e-05 0.0207489 -0.00150772
-0.000290363 0.0205575 -0.00149332
-0.000446074 0.0197861 -0.00148761
-0.000223037 0.0150167 -0.00132644
0.000295736 0.0173662 -0.00144341
0.00046754 0.0231563 -0.001636
0.000509034 0.0240845 -0.00165265
0.000494281 0.0242504 -0.00166564
0.00046657 0.0242806 -0.00167608
0.000442859 0.0242805 -0.00168356
0.000427769 0.0242723 -0.00168896
0.000421449 0.0242618 -0.00169367
0.00042229 0.0242519 -0.00169728
0.000427529 0.0242441 -0.00169955
0.000432719 0.02424 -0.00170009
0.00043129 0.0242406 -0.00169825
0.000413986 0.0242456 -0.00169309
0.000368592 0.024252 -0.00168397
0.00028105 0.0242524 -0.0016708
0.000138791 0.0242334 -0.00165424
-6.32058e-05 0.0241686 -0.00163722
-0.000304351 0.0239641 -0.00162621
-0.00048047 0.0230311 -0.00162282
-0.000240235 0.0173107 -0.0014441
0.000312459 0.0198315 -0.00160653
0.000485357 0.0266288 -0.00181926
0.000519275 0.027701 -0.00182873
0.000496855 0.0278676 -0.00183584
0.000463859 0.0278856 -0.00184262
0.0004368 0.027878 -0.00184825
0.000419407 0.0278667 -0.00185313
0.000412128 0.0278557 -0.00185733
0.000413254 0.0278468 -0.00186159
0.000420514 0.0278415 -0.00186541
0.000430438 0.0278422 -0.00186827
0.000437248 0.0278516 -0.00186959
0.000431943 0.027871 -0.00186856
0.000401245 0.0278996 -0.00186468
0.000328247 0.0279316 -0.00185736
0.000194599 0.0279523 -0.00184682
-1.19832e-05 0.027927 -0.00183548
-0.000275324 0.0277296 -0.00182918
-0.000480993 0.0266281 -0.0018274
-0.000240497 0.0198429 -0.00161894
0.000303231 0.0227083 -0.00190254
0.000450341 0.0306127 -0.00216131
0.000461469 0.0318102 -0.00216498
0.000426612 0.0319549 -0.00216501
0.000389227 0.0319486 -0.00216714
0.000362474 0.0319283 -0.00216959
0.000347558 0.0319115 -0.00217313
0.000343819 0.031899 -0.00217692
0.000349891 0.0318905 -0.00218117
0.000364353 0.0318874 -0.00218574
0.000385162 0.0318932 -0.00219015
0.000408078 0.0319119 -0.00219413
0.000425486 0.031948 -0.00219706
0.000424566 0.0320045 -0.00219843
0.000385959 0.0320799 -0.00219759
0.000284018 0.0321619 -0.00219448
9.38272e-05 0.0322088 -0.00219055
-0.000181643 0.0320556 -0.00218987
-0.000427318 0.0307953 -0.00218734
-0.000213659 0.0228062 -0.00192385
0.000246008 0.0264298 -0.0024843
0.000321095 0.0355769 -0.00284272
0.000286179 0.0368552 -0.00284434
0.00023335 0.0369439 -0.00283628
0.000194529 0.0368982 -0.00283309
0.000173781 0.0368598 -0.00283209
0.000168089 0.0368355 -0.00283298
0.000174639 0.0368197 -0.00283534
0.000191955 0.0368099 -0.0028389
0.000219918 0.0368074 -0.00284322
0.000258162 0.0368158 -0.0028482
0.000305251 0.0368411 -0.00285371
0.000356947 0.036891 -0.00285955
0.000403581 0.0369745 -0.0028653
0.000426162 0.0370985 -0.00287058
0.000392687 0.0372597 -0.0028752
0.000260362 0.0374181 -0.00287965
2.21418e-06 0.0373695 -0.00288564
-0.000289631 0.0359935 -0.00287873
-0.000144816 0.0266142 -0.00250779
9.34971e-05 0.0319271 -0.00368533
1.7698e-05 0.0425155 -0.00425238
-9.49966e-05 0.0437851 -0.00425924
-0.00016889 0.0437726 -0.00424259
-0.000200541 0.043674 -0.00423241
-0.000203664 0.0436136 -0.00422712
-0.000188984 0.0435797 -0.00422505
-0.000161731 0.0435586 -0.00422513
-0.000123473 0.0435451 -0.00422684
-7.34486e-05 0.0435397 -0.00422982
-9.93494e-06 0.0435461 -0.00423407
6.92895e-05 0.0435712 -0.00423964
0.000165686 0.0436257 -0.00424663
0.000277081 0.0437247 -0.00425498
0.000391725 0.043887 -0.00426482
0.000478728 0.0441285 -0.00427609
0.000477611 0.0444299 -0.00428879
0.000309138 0.0445698 -0.00430194
-1.25158e-05 0.043188 -0.00428465
-6.2579e-06 0.0321607 -0.00370063
-0.000269623 0.0412226 -0.00623263
-0.000628178 0.0535026 -0.00721192
-0.000850012 0.0546014 -0.0072357
-0.000932202 0.0544426 -0.00721222
-0.000931967 0.0542879 -0.00719502
-0.000891223 0.0542069 -0.00718444
-0.000830957 0.054163 -0.0071784
-0.000759722 0.0541348 -0.00717532
-0.000679572 0.0541151 -0.00717431
-0.000589327 0.0541034 -0.00717497
-0.000485534 0.0541026 -0.00717731
-0.000362285 0.0541191 -0.00718151
-0.0002111 0.0541641 -0.00718788
-2.22003e-05 0.0542562 -0.00719682
0.000210794 0.0544243 -0.00720881
0.000477706 0.0547096 -0.00722418
0.000722593 0.0551398 -0.00724302
0.00080614 0.0555429 -0.00726182
0.000552238 0.0543788 -0.00722541
0.000276119 0.0414252 -0.00623226
-0.00114856 0.056986 -0.00992293
-0.00196793 0.0705981 -0.0112765
-0.00226498 0.0712954 -0.0113244
-0.00226631 0.0710031 -0.0112995
-0.00214357 0.0708211 -0.0112766
-0.00197735 0.0707328 -0.0112608
-0.00179984 0.070684 -0.0112506
-0.0016224 0.0706514 -0.011244
-0.00144758 0.0706274 -0.0112401
-0.00127395 0.0706105 -0.0112383
-0.00109683 0.0706024 -0.0112385
-0.00090777 0.0706069 -0.0112411
-0.000692391 0.0706323 -0.0112464
-0.000427926 0.0706938 -0.0112554
-8.06315e-05 0.0708201 -0.0112688
0.000390103 0.071063 -0.0112869
0.00100272 0.0714989 -0.0113085
0.0016454 0.0720922 -0.0113259
0.00183216 0.0714507 -0.0112692
0.00091608 0.0570966 -0.00992042
-0.0030778 0.028493 0.0395425
-0.0041074 0.035299 0.0434563
-0.00400539 0.0356477 0.0434873
-0.00355194 0.0355016 0.0434897
-0.00305013 0.0354105 0.043511
-0.00258998 0.0353664 0.0435296
-0.00219032 0.035342 0.0435424
-0.00184824 0.0353257 0.0435509
-0.00155448 0.0353137 0.0435564
-0.00129875 0.0353053 0.0435596
-0.00107063 0.0353012 0.0435603
-0.000857732 0.0353035 0.043558
-0.00064315 0.0353161 0.0435517
-0.000400104 0.0353469 0.0435395
-8.04308e-05 0.0354101 0.043519
0.000407759 0.0355315 0.0434889
0.0012362 0.0357495 0.0434535
0.0026412 0.0360461 0.0434389
0.00431358 0.0357253 0.0433993
0.00215679 0.0285483 0.0395197
-3.38604e-05 0.000244912 -0.000490854
-4.62906e-05 0.000290465 -0.000583768
-4.86974e-05 0.000293308 -0.00060841
-3.98398e-05 0.000292526 -0.000623177
-2.06094e-05 0.000292041 -0.000633055
6.74554e-06 0.000292392 -0.000639986
3.96085e-05 0.000293564 -0.000644955
7.53397e-05 0.000295506 -0.00064821
0.000111166 0.000298125 -0.000649627
0.000144193 0.000301281 -0.000648913
0.000171581 0.000304832 -0.000645673
0.000190588 0.000308587 -0.000639582
0.000198628 0.000312167 -0.000630762
0.000193725 0.000315023 -0.000619636
0.000175094 0.000316777 -0.000606831
0.000143536 0.000317019 -0.000593059
0.000101278 0.00031508 -0.000579485
5.25413e-05 0.000310275 -0.000567214
3.21496e-06 0.000300404 -0.000553868
1.60748e-06 0.000253118 -0.000476409
-2.78372e-05 0.000738987 -0.000686274
-4.46143e-05 0.000883139 -0.000839081
-5.24043e-05 0.000895111 -0.000878445
-4.70301e-05 0.000894045 -0.000899825
-2.831e-05 0.000892447 -0.000913233
1.87693e-06 0.000892396 -0.000922077
4.09859e-05 0.00089424 -0.000927918
8.61164e-05 0.000897977 -0.00093124
0.000133959 0.000903465 -0.00093203
0.000180888 0.000910485 -0.000929904
0.000223102 0.000918746 -0.000924321
0.000256576 0.000927675 -0.00091497
0.000277184 0.000936355 -0.000902068
0.00028162 0.000943744 -0.000886031
0.000267786 0.000948661 -0.000867567
0.000235103 0.000949636 -0.000847793
0.000184945 0.000945161 -0.00082835
0.000121343 0.000933478 -0.000810424
5.08375e-05 0.000906028 -0.000789265
2.54188e-05 0.000753544 -0.000668338
-1.79871e-05 0.00144217 -0.00090422
-3.32051e-05 0.00175495 -0.00110764
-4.27501e-05 0.00178584 -0.00116035
-3.92926e-05 0.0017862 -0.00118811
-2.15582e-05 0.00178358 -0.0012048
8.90633e-06 0.00178269 -0.00121518
4.96353e-05 0.00178457 -0.00122145
9.76874e-05 0.00178942 -0.00122443
0.000149654 0.00179715 -0.00122422
0.00020173 0.0018075 -0.00122036
0.000249668 0.00181999 -0.00121231
0.000288833 0.00183373 -0.00119972
0.000314494 0.0018474 -0.00118267
0.000322454 0.00185926 -0.00116152
0.000309506 0.00186705 -0.00113724
0.000274202 0.00186826 -0.00111132
0.000217179 0.00186029 -0.00108559
0.000141655 0.00183968 -0.00106161
5.57194e-05 0.00178617 -0.00103319
2.78597e-05 0.00146153 -0.000875946
-4.60903e-06 0.00236527 -0.00117958
-1.55768e-05 0.00293178 -0.00144195
-2.5846e-05 0.00299523 -0.00150936
-2.41015e-05 0.00299991 -0.00154433
-7.52842e-06 0.00299691 -0.0015648
2.28195e-05 0.00299499 -0.00157696
6.46077e-05 0.00299625 -0.00158377
0.000114859 0.00300125 -0.00158647
0.000170072 0.00301004 -0.00158523
0.000226193 0.00302239 -0.00157961
0.000278595 0.00303771 -0.00156894
0.000322164 0.003055 -0.00155272
0.000351414 0.00307238 -0.00153093
0.00036106 0.00308735 -0.00150391
0.000346863 0.00309664 -0.001473
0.000306437 0.00309684 -0.00143986
0.000239689 0.00308406 -0.00140675
0.000149565 0.00305203 -0.00137556
4.77581e-05 0.00296098 -0.00133889
2.38791e-05 0.00238351 -0.00113766
1.33194e-05 0.00353101 -0.00149852
9.90693e-06 0.00445222 -0.00182686
2.34631e-07 0.00456621 -0.00190978
3.47702e-07 0.0045793 -0.00195245
1.52149e-05 0.00457704 -0.00197706
4.45781e-05 0.00457404 -0.00199125
8.63711e-05 0.00457402 -0.0019988
0.000137681 0.00457806 -0.00200138
0.000194951 0.00458638 -0.00199927
0.000253951 0.00459895 -0.00199198
0.000309859 0.00461524 -0.00197871
0.00035688 0.00463403 -0.00195878
0.000388682 0.00465302 -0.00193205
0.000398901 0.00466916 -0.00189888
0.000382365 0.00467814 -0.00186076
0.000335524 0.00467547 -0.00181963
0.000257251 0.00465577 -0.00177842
0.000150598 0.00460892 -0.00173961
3.26704e-05 0.00446537 -0.00169413
1.63352e-05 0.00353958 -0.00144221
3.69532e-05 0.00496104 -0.00184673
4.53595e-05 0.0063538 -0.00224503
3.81366e-05 0.00654068 -0.0023434
3.68673e-05 0.00656739 -0.00239391
4.9388e-05 0.00656742 -0.00242286
7.66448e-05 0.00656361 -0.00243925
0.000116978 0.00656179 -0.00244774
0.000167598 0.00656373 -0.00245045
0.000225076 0.00657005 -0.00244779
0.000285192 0.00658097 -0.00243914
0.00034281 0.00659608 -0.00242352
0.000391562 0.006614 -0.00240015
0.000424446 0.00663209 -0.00236868
0.000433858 0.00664696 -0.00232949
0.00041354 0.00665348 -0.00228392
0.000358596 0.00664565 -0.00223451
0.000267066 0.00661654 -0.00218479
0.000142278 0.00655043 -0.00213821
8.03123e-06 0.00633532 -0.00208382
4.01561e-06 0.00495063 -0.00177684
6.72322e-05 0.00666944 -0.00220926
9.25092e-05 0.00866534 -0.00267825
9.00375e-05 0.0089517 -0.00279107
8.78935e-05 0.00899835 -0.00284901
9.75693e-05 0.00900269 -0.00288218
0.00012153 0.00899862 -0.0029008
0.000158675 0.00899467 -0.00291045
0.000206569 0.0089936 -0.00291366
0.000262073 0.00899655 -0.00291085
0.000320997 0.00900406 -0.00290136
0.000377961 0.00901575 -0.00288405
0.000426098 0.00903038 -0.0028581
0.000457959 0.00904529 -0.0028224
0.000464794 0.00905627 -0.00277756
0.000438789 0.00905761 -0.00272499
0.000373801 0.00904204 -0.00266755
0.000266886 0.00900076 -0.00260936
0.000122086 0.00891013 -0.00255495
-2.87551e-05 0.00860026 -0.00249197
-1.43776e-05 0.00663221 -0.00212759
0.00010457 0.00865894 -0.0025702
0.000152248 0.0114021 -0.00310715
0.000157211 0.0118184 -0.00323225
0.000154999 0.0118922 -0.00329649
0.000161483 0.0119031 -0.00333334
0.000180969 0.0118995 -0.00335412
0.00021322 0.0118933 -0.00336513
0.000256338 0.0118886 -0.00336925
0.000307519 0.0118872 -0.00336691
0.00036262 0.0118898 -0.00335749
0.000416297 0.0118964 -0.00333956
0.000461489 0.0119057 -0.00331215
0.000489785 0.0119152 -0.00327372
0.000491605 0.0119202 -0.00322454
0.000457648 0.011914 -0.00316608
0.000380477 0.0118884 -0.00310133
0.000255954 0.0118322 -0.00303521
8.90366e-05 0.011711 -0.00297343
-7.81416e-05 0.0112791 -0.0029024
-3.90708e-05 0.00858966 -0.00247976
0.000148704 0.0109191 -0.00291399
0.000224259 0.014563 -0.00351294
0.000239474 0.0151426 -0.00364689
0.000238127 0.015251 -0.00371551
0.000241154 0.0152707 -0.00375511
0.000255165 0.0152682 -0.00377778
0.00028106 0.01526 -0.00379025
0.000317555 0.0152517 -0.00379565
0.000362259 0.0152454 -0.00379454
0.000411215 0.0152423 -0.00378638
0.000459072 0.0152428 -0.00376936
0.000498889 0.0152458 -0.00374192
0.000521301 0.0152486 -0.00370266
0.000515748 0.0152461 -0.00365125