# vtk DataFile Version 2.0 
Visualization 
ASCII 
DATASET STRUCTURED_GRID 
DIMENSIONS 21 21 11
POINTS 4851 float
-0.1 -0.1 -0.1
0 -0.1 -0.1
0.1 -0.1 -0.1
0.2 -0.1 -0.1
0.3 -0.1 -0.1
0.4 -0.1 -0.1
0.5 -0.1 -0.1
0.6 -0.1 -0.1
0.7 -0.1 -0.1
0.8 -0.1 -0.1
0.9 -0.1 -0.1
1 -0.1 -0.1
1.1 -0.1 -0.1
1.2 -0.1 -0.1
1.3 -0.1 -0.1
1.4 -0.1 -0.1
1.5 -0.1 -0.1
1.6 -0.1 -0.1
1.7 -0.1 -0.1
1.8 -0.1 -0.1
1.9 -0.1 -0.1
-0.1 0 -0.1
0 0 -0.1
0.1 0 -0.1
0.2 0 -0.1
0.3 0 -0.1
0.4 0 -0.1
0.5 0 -0.1
0.6 0 -0.1
0.7 0 -0.1
0.8 0 -0.1
0.9 0 -0.1
1 0 -0.1
1.1 0 -0.1
1.2 0 -0.1
1.3 0 -0.1
1.4 0 -0.1
1.5 0 -0.1
1.6 0 -0.1
1.7 0 -0.1
1.8 0 -0.1
1.9 0 -0.1
-0.1 0.1 -0.1
0 0.1 -0.1
0.1 0.1 -0.1
0.2 0.1 -0.1
0.3 0.1 -0.1
0.4 0.1 -0.1
0.5 0.1 -0.1
0.6 0.1 -0.1
0.7 0.1 -0.1
0.8 0.1 -0.1
0.9 0.1 -0.1
1 0.1 -0.1
1.1 0.1 -0.1
1.2 0.1 -0.1
1.3 0.1 -0.1
1.4 0.1 -0.1
1.5 0.1 -0.1
1.6 0.1 -0.1
1.7 0.1 -0.1
1.8 0.1 -0.1
1.9 0.1 -0.1
-0.1 0.2 -0.1
0 0.2 -0.1
0.1 0.2 -0.1
0.2 0.2 -0.1
0.3 0.2 -0.1
0.4 0.2 -0.1
0.5 0.2 -0.1
0.6 0.2 -0.1
0.7 0.2 -0.1
0.8 0.2 -0.1
0.9 0.2 -0.1
1 0.2 -0.1
1.1 0.2 -0.1
1.2 0.2 -0.1
1.3 0.2 -0.1
1.4 0.2 -0.1
1.5 0.2 -0.1
1.6 0.2 -0.1
1.7 0.2 -0.1
1.8 0.2 -0.1
1.9 0.2 -0.1
-0.1 0.3 -0.1
0 0.3 -0.1
0.1 0.3 -0.1
0.2 0.3 -0.1
0.3 0.3 -0.1
0.4 0.3 -0.1
0.5 0.3 -0.1
0.6 0.3 -0.1
0.7 0.3 -0.1
0.8 0.3 -0.1
0.9 0.3 -0.1
1 0.3 -0.1
1.1 0.3 -0.1
1.2 0.3 -0.1
1.3 0.3 -0.1
1.4 0.3 -0.1
1.5 0.3 -0.1
1.6 0.3 -0.1
1.7 0.3 -0.1
1.8 0.3 -0.1
1.9 0.3 -0.1
-0.1 0.4 -0.1
0 0.4 -0.1
0.1 0.4 -0.1
0.2 0.4 -0.1
0.3 0.4 -0.1
0.4 0.4 -0.1
0.5 0.4 -0.1
0.6 0.4 -0.1
0.7 0.4 -0.1
0.8 0.4 -0.1
0.9 0.4 -0.1
1 0.4 -0.1
1.1 0.4 -0.1
1.2 0.4 -0.1
1.3 0.4 -0.1
1.4 0.4 -0.1
1.5 0.4 -0.1
1.6 0.4 -0.1
1.7 0.4 -0.1
1.8 0.4 -0.1
1.9 0.4 -0.1
-0.1 0.5 -0.1
0 0.5 -0.1
0.1 0.5 -0.1
0.2 0.5 -0.1
0.3 0.5 -0.1
0.4 0.5 -0.1
0.5 0.5 -0.1
0.6 0.5 -0.1
0.7 0.5 -0.1
0.8 0.5 -0.1
0.9 0.5 -0.1
1 0.5 -0.1
1.1 0.5 -0.1
1.2 0.5 -0.1
1.3 0.5 -0.1
1.4 0.5 -0.1
1.5 0.5 -0.1
1.6 0.5 -0.1
1.7 0.5 -0.1
1.8 0.5 -0.1
1.9 0.5 -0.1
-0.1 0.6 -0.1
0 0.6 -0.1
0.1 0.6 -0.1
0.2 0.6 -0.1
0.3 0.6 -0.1
0.4 0.6 -0.1
0.5 0.6 -0.1
0.6 0.6 -0.1
0.7 0.6 -0.1
0.8 0.6 -0.1
0.9 0.6 -0.1
1 0.6 -0.1
1.1 0.6 -0.1
1.2 0.6 -0.1
1.3 0.6 -0.1
1.4 0.6 -0.1
1.5 0.6 -0.1
1.6 0.6 -0.1
1.7 0.6 -0.1
1.8 0.6 -0.1
1.9 0.6 -0.1
-0.1 0.7 -0.1
0 0.7 -0.1
0.1 0.7 -0.1
0.2 0.7 -0.1
0.3 0.7 -0.1
0.4 0.7 -0.1
0.5 0.7 -0.1
0.6 0.7 -0.1
0.7 0.7 -0.1
0.8 0.7 -0.1
0.9 0.7 -0.1
1 0.7 -0.1
1.1 0.7 -0.1
1.2 0.7 -0.1
1.3 0.7 -0.1
1.4 0.7 -0.1
1.5 0.7 -0.1
1.6 0.7 -0.1
1.7 0.7 -0.1
1.8 0.7 -0.1
1.9 0.7 -0.1
-0.1 0.8 -0.1
0 0.8 -0.1
0.1 0.8 -0.1
0.2 0.8 -0.1
0.3 0.8 -0.1
0.4 0.8 -0.1
0.5 0.8 -0.1
0.6 0.8 -0.1
0.7 0.8 -0.1
0.8 0.8 -0.1
0.9 0.8 -0.1
1 0.8 -0.1
1.1 0.8 -0.1
1.2 0.8 -0.1
1.3 0.8 -0.1
1.4 0.8 -0.1
1.5 0.8 -0.1
1.6 0.8 -0.1
1.7 0.8 -0.1
1.8 0.8 -0.1
1.9 0.8 -0.1
-0.1 0.9 -0.1
0 0.9 -0.1
0.1 0.9 -0.1
0.2 0.9 -0.1
0.3 0.9 -0.1
0.4 0.9 -0.1
0.5 0.9 -0.1
0.6 0.9 -0.1
0.7 0.9 -0.1
0.8 0.9 -0.1
0.9 0.9 -0.1
1 0.9 -0.1
1.1 0.9 -0.1
1.2 0.9 -0.1
1.3 0.9 -0.1
1.4 0.9 -0.1
1.5 0.9 -0.1
1.6 0.9 -0.1
1.7 0.9 -0.1
1.8 0.9 -0.1
1.9 0.9 -0.1
-0.1 1 -0.1
0 1 -0.1
0.1 1 -0.1
0.2 1 -0.1
0.3 1 -0.1
0.4 1 -0.1
0.5 1 -0.1
0.6 1 -0.1
0.7 1 -0.1
0.8 1 -0.1
0.9 1 -0.1
1 1 -0.1
1.1 1 -0.1
1.2 1 -0.1
1.3 1 -0.1
1.4 1 -0.1
1.5 1 -0.1
1.6 1 -0.1
1.7 1 -0.1
1.8 1 -0.1
1.9 1 -0.1
-0.1 1.1 -0.1
0 1.1 -0.1
0.1 1.1 -0.1
0.2 1.1 -0.1
0.3 1.1 -0.1
0.4 1.1 -0.1
0.5 1.1 -0.1
0.6 1.1 -0.1
0.7 1.1 -0.1
0.8 1.1 -0.1
0.9 1.1 -0.1
1 1.1 -0.1
1.1 1.1 -0.1
1.2 1.1 -0.1
1.3 1.1 -0.1
1.4 1.1 -0.1
1.5 1.1 -0.1
1.6 1.1 -0.1
1.7 1.1 -0.1
1.8 1.1 -0.1
1.9 1.1 -0.1
-0.1 1.2 -0.1
0 1.2 -0.1
0.1 1.2 -0.1
0.2 1.2 -0.1
0.3 1.2 -0.1
0.4 1.2 -0.1
0.5 1.2 -0.1
0.6 1.2 -0.1
0.7 1.2 -0.1
0.8 1.2 -0.1
0.9 1.2 -0.1
1 1.2 -0.1
1.1 1.2 -0.1
1.2 1.2 -0.1
1.3 1.2 -0.1
1.4 1.2 -0.1
1.5 1.2 -0.1
1.6 1.2 -0.1
1.7 1.2 -0.1
1.8 1.2 -0.1
1.9 1.2 -0.1
-0.1 1.3 -0.1
0 1.3 -0.1
0.1 1.3 -0.1
0.2 1.3 -0.1
0.3 1.3 -0.1
0.4 1.3 -0.1
0.5 1.3 -0.1
0.6 1.3 -0.1
0.7 1.3 -0.1
0.8 1.3 -0.1
0.9 1.3 -0.1
1 1.3 -0.1
1.1 1.3 -0.1
1.2 1.3 -0.1
1.3 1.3 -0.1
1.4 1.3 -0.1
1.5 1.3 -0.1
1.6 1.3 -0.1
1.7 1.3 -0.1
1.8 1.3 -0.1
1.9 1.3 -0.1
-0.1 1.4 -0.1
0 1.4 -0.1
0.1 1.4 -0.1
0.2 1.4 -0.1
0.3 1.4 -0.1
0.4 1.4 -0.1
0.5 1.4 -0.1
0.6 1.4 -0.1
0.7 1.4 -0.1
0.8 1.4 -0.1
0.9 1.4 -0.1
1 1.4 -0.1
1.1 1.4 -0.1
1.2 1.4 -0.1
1.3 1.4 -0.1
1.4 1.4 -0.1
1.5 1.4 -0.1
1.6 1.4 -0.1
1.7 1.4 -0.1
1.8 1.4 -0.1
1.9 1.4 -0.1
-0.1 1.5 -0.1
0 1.5 -0.1
0.1 1.5 -0.1
0.2 1.5 -0.1
0.3 1.5 -0.1
0.4 1.5 -0.1
0.5 1.5 -0.1
0.6 1.5 -0.1
0.7 1.5 -0.1
0.8 1.5 -0.1
0.9 1.5 -0.1
1 1.5 -0.1
1.1 1.5 -0.1
1.2 1.5 -0.1
1.3 1.5 -0.1
1.4 1.5 -0.1
1.5 1.5 -0.1
1.6 1.5 -0.1
1.7 1.5 -0.1
1.8 1.5 -0.1
1.9 1.5 -0.1
-0.1 1.6 -0.1
0 1.6 -0.1
0.1 1.6 -0.1
0.2 1.6 -0.1
0.3 1.6 -0.1
0.4 1.6 -0.1
0.5 1.6 -0.1
0.6 1.6 -0.1
0.7 1.6 -0.1
0.8 1.6 -0.1
0.9 1.6 -0.1
1 1.6 -0.1
1.1 1.6 -0.1
1.2 1.6 -0.1
1.3 1.6 -0.1
1.4 1.6 -0.1
1.5 1.6 -0.1
1.6 1.6 -0.1
1.7 1.6 -0.1
1.8 1.6 -0.1
1.9 1.6 -0.1
-0.1 1.7 -0.1
0 1.7 -0.1
0.1 1.7 -0.1
0.2 1.7 -0.1
0.3 1.7 -0.1
0.4 1.7 -0.1
0.5 1.7 -0.1
0.6 1.7 -0.1
0.7 1.7 -0.1
0.8 1.7 -0.1
0.9 1.7 -0.1
1 1.7 -0.1
1.1 1.7 -0.1
1.2 1.7 -0.1
1.3 1.7 -0.1
1.4 1.7 -0.1
1.5 1.7 -0.1
1.6 1.7 -0.1
1.7 1.7 -0.1
1.8 1.7 -0.1
1.9 1.7 -0.1
-0.1 1.8 -0.1
0 1.8 -0.1
0.1 1.8 -0.1
0.2 1.8 -0.1
0.3 1.8 -0.1
0.4 1.8 -0.1
0.5 1.8 -0.1
0.6 1.8 -0.1
0.7 1.8 -0.1
0.8 1.8 -0.1
0.9 1.8 -0.1
1 1.8 -0.1
1.1 1.8 -0.1
1.2 1.8 -0.1
1.3 1.8 -0.1
1.4 1.8 -0.1
1.5 1.8 -0.1
1.6 1.8 -0.1
1.7 1.8 -0.1
1.8 1.8 -0.1
1.9 1.8 -0.1
-0.1 1.9 -0.1
0 1.9 -0.1
0.1 1.9 -0.1
0.2 1.9 -0.1
0.3 1.9 -0.1
0.4 1.9 -0.1
0.5 1.9 -0.1
0.6 1.9 -0.1
0.7 1.9 -0.1
0.8 1.9 -0.1
0.9 1.9 -0.1
1 1.9 -0.1
1.1 1.9 -0.1
1.2 1.9 -0.1
1.3 1.9 -0.1
1.4 1.9 -0.1
1.5 1.9 -0.1
1.6 1.9 -0.1
1.7 1.9 -0.1
1.8 1.9 -0.1
1.9 1.9 -0.1
-0.1 -0.1 0
0 -0.1 0
0.1 -0.1 0
0.2 -0.1 0
0.3 -0.1 0
0.4 -0.1 0
0.5 -0.1 0
0.6 -0.1 0
0.7 -0.1 0
0.8 -0.1 0
0.9 -0.1 0
1 -0.1 0
1.1 -0.1 0
1.2 -0.1 0
1.3 -0.1 0
1.4 -0.1 0
1.5 -0.1 0
1.6 -0.1 0
1.7 -0.1 0
1.8 -0.1 0
1.9 -0.1 0
-0.1 0 0
0 0 0
0.1 0 0
0.2 0 0
0.3 0 0
0.4 0 0
0.5 0 0
0.6 0 0
0.7 0 0
0.8 0 0
0.9 0 0
1 0 0
1.1 0 0
1.2 0 0
1.3 0 0
1.4 0 0
1.5 0 0
1.6 0 0
1.7 0 0
1.8 0 0
1.9 0 0
-0.1 0.1 0
0 0.1 0
0.1 0.1 0
0.2 0.1 0
0.3 0.1 0
0.4 0.1 0
0.5 0.1 0
0.6 0.1 0
0.7 0.1 0
0.8 0.1 0
0.9 0.1 0
1 0.1 0
1.1 0.1 0
1.2 0.1 0
1.3 0.1 0
1.4 0.1 0
1.5 0.1 0
1.6 0.1 0
1.7 0.1 0
1.8 0.1 0
1.9 0.1 0
-0.1 0.2 0
0 0.2 0
0.1 0.2 0
0.2 0.2 0
0.3 0.2 0
0.4 0.2 0
0.5 0.2 0
0.6 0.2 0
0.7 0.2 0
0.8 0.2 0
0.9 0.2 0
1 0.2 0
1.1 0.2 0
1.2 0.2 0
1.3 0.2 0
1.4 0.2 0
1.5 0.2 0
1.6 0.2 0
1.7 0.2 0
1.8 0.2 0
1.9 0.2 0
-0.1 0.3 0
0 0.3 0
0.1 0.3 0
0.2 0.3 0
0.3 0.3 0
0.4 0.3 0
0.5 0.3 0
0.6 0.3 0
0.7 0.3 0
0.8 0.3 0
0.9 0.3 0
1 0.3 0
1.1 0.3 0
1.2 0.3 0
1.3 0.3 0
1.4 0.3 0
1.5 0.3 0
1.6 0.3 0
1.7 0.3 0
1.8 0.3 0
1.9 0.3 0
-0.1 0.4 0
0 0.4 0
0.1 0.4 0
0.2 0.4 0
0.3 0.4 0
0.4 0.4 0
0.5 0.4 0
0.6 0.4 0
0.7 0.4 0
0.8 0.4 0
0.9 0.4 0
1 0.4 0
1.1 0.4 0
1.2 0.4 0
1.3 0.4 0
1.4 0.4 0
1.5 0.4 0
1.6 0.4 0
1.7 0.4 0
1.8 0.4 0
1.9 0.4 0
-0.1 0.5 0
0 0.5 0
0.1 0.5 0
0.2 0.5 0
0.3 0.5 0
0.4 0.5 0
0.5 0.5 0
0.6 0.5 0
0.7 0.5 0
0.8 0.5 0
0.9 0.5 0
1 0.5 0
1.1 0.5 0
1.2 0.5 0
1.3 0.5 0
1.4 0.5 0
1.5 0.5 0
1.6 0.5 0
1.7 0.5 0
1.8 0.5 0
1.9 0.5 0
-0.1 0.6 0
0 0.6 0
0.1 0.6 0
0.2 0.6 0
0.3 0.6 0
0.4 0.6 0
0.5 0.6 0
0.6 0.6 0
0.7 0.6 0
0.8 0.6 0
0.9 0.6 0
1 0.6 0
1.1 0.6 0
1.2 0.6 0
1.3 0.6 0
1.4 0.6 0
1.5 0.6 0
1.6 0.6 0
1.7 0.6 0
1.8 0.6 0
1.9 0.6 0
-0.1 0.7 0
0 0.7 0
0.1 0.7 0
0.2 0.7 0
0.3 0.7 0
0.4 0.7 0
0.5 0.7 0
0.6 0.7 0
0.7 0.7 0
0.8 0.7 0
0.9 0.7 0
1 0.7 0
1.1 0.7 0
1.2 0.7 0
1.3 0.7 0
1.4 0.7 0
1.5 0.7 0
1.6 0.7 0
1.7 0.7 0
1.8 0.7 0
1.9 0.7 0
-0.1 0.8 0
0 0.8 0
0.1 0.8 0
0.2 0.8 0
0.3 0.8 0
0.4 0.8 0
0.5 0.8 0
0.6 0.8 0
0.7 0.8 0
0.8 0.8 0
0.9 0.8 0
1 0.8 0
1.1 0.8 0
1.2 0.8 0
1.3 0.8 0
1.4 0.8 0
1.5 0.8 0
1.6 0.8 0
1.7 0.8 0
1.8 0.8 0
1.9 0.8 0
-0.1 0.9 0
0 0.9 0
0.1 0.9 0
0.2 0.9 0
0.3 0.9 0
0.4 0.9 0
0.5 0.9 0
0.6 0.9 0
0.7 0.9 0
0.8 0.9 0
0.9 0.9 0
1 0.9 0
1.1 0.9 0
1.2 0.9 0
1.3 0.9 0
1.4 0.9 0
1.5 0.9 0
1.6 0.9 0
1.7 0.9 0
1.8 0.9 0
1.9 0.9 0
-0.1 1 0
0 1 0
0.1 1 0
0.2 1 0
0.3 1 0
0.4 1 0
0.5 1 0
0.6 1 0
0.7 1 0
0.8 1 0
0.9 1 0
1 1 0
1.1 1 0
1.2 1 0
1.3 1 0
1.4 1 0
1.5 1 0
1.6 1 0
1.7 1 0
1.8 1 0
1.9 1 0
-0.1 1.1 0
0 1.1 0
0.1 1.1 0
0.2 1.1 0
0.3 1.1 0
0.4 1.1 0
0.5 1.1 0
0.6 1.1 0
0.7 1.1 0
0.8 1.1 0
0.9 1.1 0
1 1.1 0
1.1 1.1 0
1.2 1.1 0
1.3 1.1 0
1.4 1.1 0
1.5 1.1 0
1.6 1.1 0
1.7 1.1 0
1.8 1.1 0
1.9 1.1 0
-0.1 1.2 0
0 1.2 0
0.1 1.2 0
0.2 1.2 0
0.3 1.2 0
0.4 1.2 0
0.5 1.2 0
0.6 1.2 0
0.7 1.2 0
0.8 1.2 0
0.9 1.2 0
1 1.2 0
1.1 1.2 0
1.2 1.2 0
1.3 1.2 0
1.4 1.2 0
1.5 1.2 0
1.6 1.2 0
1.7 1.2 0
1.8 1.2 0
1.9 1.2 0
-0.1 1.3 0
0 1.3 0
0.1 1.3 0
0.2 1.3 0
0.3 1.3 0
0.4 1.3 0
0.5 1.3 0
0.6 1.3 0
0.7 1.3 0
0.8 1.3 0
0.9 1.3 0
1 1.3 0
1.1 1.3 0
1.2 1.3 0
1.3 1.3 0
1.4 1.3 0
1.5 1.3 0
1.6 1.3 0
1.7 1.3 0
1.8 1.3 0
1.9 1.3 0
-0.1 1.4 0
0 1.4 0
0.1 1.4 0
0.2 1.4 0
0.3 1.4 0
0.4 1.4 0
0.5 1.4 0
0.6 1.4 0
0.7 1.4 0
0.8 1.4 0
0.9 1.4 0
1 1.4 0
1.1 1.4 0
1.2 1.4 0
1.3 1.4 0
1.4 1.4 0
1.5 1.4 0
1.6 1.4 0
1.7 1.4 0
1.8 1.4 0
1.9 1.4 0
-0.1 1.5 0
0 1.5 0
0.1 1.5 0
0.2 1.5 0
0.3 1.5 0
0.4 1.5 0
0.5 1.5 0
0.6 1.5 0
0.7 1.5 0
0.8 1.5 0
0.9 1.5 0
1 1.5 0
1.1 1.5 0
1.2 1.5 0
1.3 1.5 0
1.4 1.5 0
1.5 1.5 0
1.6 1.5 0
1.7 1.5 0
1.8 1.5 0
1.9 1.5 0
-0.1 1.6 0
0 1.6 0
0.1 1.6 0
0.2 1.6 0
0.3 1.6 0
0.4 1.6 0
0.5 1.6 0
0.6 1.6 0
0.7 1.6 0
0.8 1.6 0
0.9 1.6 0
1 1.6 0
1.1 1.6 0
1.2 1.6 0
1.3 1.6 0
1.4 1.6 0
1.5 1.6 0
1.6 1.6 0
1.7 1.6 0
1.8 1.6 0
1.9 1.6 0
-0.1 1.7 0
0 1.7 0
0.1 1.7 0
0.2 1.7 0
0.3 1.7 0
0.4 1.7 0
0.5 1.7 0
0.6 1.7 0
0.7 1.7 0
0.8 1.7 0
0.9 1.7 0
1 1.7 0
1.1 1.7 0
1.2 1.7 0
1.3 1.7 0
1.4 1.7 0
1.5 1.7 0
1.6 1.7 0
1.7 1.7 0
1.8 1.7 0
1.9 1.7 0
-0.1 1.8 0
0 1.8 0
0.1 1.8 0
0.2 1.8 0
0.3 1.8 0
0.4 1.8 0
0.5 1.8 0
0.6 1.8 0
0.7 1.8 0
0.8 1.8 0
0.9 1.8 0
1 1.8 0
1.1 1.8 0
1.2 1.8 0
1.3 1.8 0
1.4 1.8 0
1.5 1.8 0
1.6 1.8 0
1.7 1.8 0
1.8 1.8 0
1.9 1.8 0
-0.1 1.9 0
0 1.9 0
0.1 1.9 0
0.2 1.9 0
0.3 1.9 0
0.4 1.9 0
0.5 1.9 0
0.6 1.9 0
0.7 1.9 0
0.8 1.9 0
0.9 1.9 0
1 1.9 0
1.1 1.9 0
1.2 1.9 0
1.3 1.9 0
1.4 1.9 0
1.5 1.9 0
1.6 1.9 0
1.7 1.9 0
1.8 1.9 0
[...]
CELL_DATA 4000
VECTORS velocity double 
-7.66832e-06 0.000325388 -0.00031772
-1.44838e-05 0.000395348 -0.000389875
-1.85572e-05 0.000404597 -0.000401893
-1.9507e-05 0.000407421 -0.000406502
-1.78323e-05 0.000408735 -0.000408879
-1.42229e-05 0.000409523 -0.000410289
-9.29454e-06 0.000410111 -0.00041123
-3.53823e-06 0.000410617 -0.000411904
2.64906e-06 0.000411076 -0.000412379
8.92092e-06 0.000411486 -0.00041266
1.49456e-05 0.000411824 -0.000412711
2.03802e-05 0.00041205 -0.000412469
2.485e-05 0.000412095 -0.00041184
2.79437e-05 0.000411852 -0.000410704
2.9238e-05 0.000411162 -0.000408905
2.83384e-05 0.000409791 -0.000406243
2.49577e-05 0.0004074 -0.000402466
1.90823e-05 0.000403324 -0.000397131
1.12959e-05 0.000393624 -0.000386772
5.64793e-06 0.000325233 -0.00031949
-1.65906e-06 0.000895999 -0.000403767
-6.62882e-06 0.00111105 -0.000509808
-1.18113e-05 0.00114045 -0.000527168
-1.46958e-05 0.00114839 -0.000533295
-1.47524e-05 0.00115176 -0.000536372
-1.23012e-05 0.00115366 -0.000538186
-7.88278e-06 0.00115503 -0.000539391
-2.03758e-06 0.00115621 -0.000540249
4.73475e-06 0.00115728 -0.000540849
1.19586e-05 0.00115825 -0.0005412
1.9156e-05 0.00115907 -0.00054126
2.58119e-05 0.00115964 -0.000540949
3.13467e-05 0.00115976 -0.000540153
3.51071e-05 0.00115917 -0.000538719
3.63766e-05 0.00115745 -0.000536441
3.44077e-05 0.001154 -0.000533048
2.85119e-05 0.00114786 -0.000528187
1.84579e-05 0.00113686 -0.000521112
6.52221e-06 0.00110692 -0.000505924
3.2611e-06 0.000896962 -0.000406523
1.3513e-05 0.00161296 -0.000443126
1.49254e-05 0.00203676 -0.000558822
9.6615e-06 0.00209519 -0.000577525
4.2865e-06 0.00210927 -0.000584343
1.23933e-06 0.0021148 -0.000587863
9.03804e-07 0.0021178 -0.00058995
2.94984e-06 0.00211992 -0.000591327
6.8571e-06 0.00212173 -0.000592297
1.20716e-05 0.0021234 -0.000592968
1.80321e-05 0.00212495 -0.000593355
2.41453e-05 0.00212629 -0.000593412
2.97497e-05 0.00212725 -0.000593053
3.40782e-05 0.00212753 -0.00059215
3.62304e-05 0.00212668 -0.000590531
3.51591e-05 0.00212401 -0.000587964
2.96565e-05 0.00211853 -0.00058415
1.84314e-05 0.00210861 -0.000578733
9.04493e-07 0.00208986 -0.000571018
-1.73521e-05 0.00203113 -0.00055478
-8.67607e-06 0.00161586 -0.00044591
2.99804e-05 0.00243491 -0.000491444
3.92502e-05 0.00312571 -0.000616699
3.43583e-05 0.00322183 -0.000636423
2.63394e-05 0.00324253 -0.000643953
1.99468e-05 0.00325 -0.000647998
1.64471e-05 0.00325389 -0.000650425
1.57728e-05 0.00325661 -0.000652021
1.74298e-05 0.00325893 -0.000653136
2.08012e-05 0.00326112 -0.000653901
2.52195e-05 0.0032632 -0.00065434
2.9956e-05 0.00326507 -0.000654403
3.41774e-05 0.00326649 -0.000653995
3.68951e-05 0.00326707 -0.000652971
3.69212e-05 0.00326618 -0.000651134
3.28254e-05 0.00326291 -0.000648222
2.28952e-05 0.00325588 -0.000643914
5.26784e-06 0.0032428 -0.000637873
-2.06032e-05 0.00321624 -0.000629544
-4.45408e-05 0.00312007 -0.000612559
-2.22704e-05 0.00243997 -0.000493987
4.5521e-05 0.00335616 -0.000553786
6.27504e-05 0.00437131 -0.000691917
5.83668e-05 0.00451448 -0.000713012
4.77188e-05 0.00454229 -0.000721362
3.7969e-05 0.00455133 -0.000726
3.13248e-05 0.00455583 -0.000728812
2.79988e-05 0.00455892 -0.000730659
2.7518e-05 0.0045616 -0.000731945
2.91895e-05 0.0045642 -0.000732828
3.22269e-05 0.00456677 -0.000733337
3.57499e-05 0.00456918 -0.000733422
3.8734e-05 0.00457116 -0.000732971
3.99482e-05 0.00457223 -0.00073182
3.789e-05 0.00457163 -0.000729738
3.07235e-05 0.00456821 -0.000726428
1.62378e-05 0.00456028 -0.00072154
-7.91156e-06 0.00454484 -0.000714754
-4.19332e-05 0.00451033 -0.000705659
-7.06159e-05 0.00436708 -0.000687581
-3.5308e-05 0.00336341 -0.0005561
6.01117e-05 0.00438946 -0.000630768
8.4972e-05 0.00578866 -0.000785671
8.09788e-05 0.00598921 -0.000808659
6.76418e-05 0.00602476 -0.000817957
5.45365e-05 0.00603497 -0.000823239
4.48206e-05 0.00603972 -0.000826462
3.89809e-05 0.00604294 -0.000828578
3.65548e-05 0.0060458 -0.000830052
3.67625e-05 0.00604869 -0.000831071
3.86888e-05 0.00605169 -0.000831671
4.12902e-05 0.00605468 -0.000831795
4.3336e-05 0.00605736 -0.000831318
4.33302e-05 0.00605918 -0.000830045
3.94298e-05 0.00605925 -0.000827708
2.93699e-05 0.00605622 -0.000823963
1.04342e-05 0.00604809 -0.000818418
-2.01653e-05 0.00603104 -0.000810758
-6.21667e-05 0.00598805 -0.000800692
-9.52372e-05 0.00578696 -0.000781017
-4.76186e-05 0.00439887 -0.000632958
7.42449e-05 0.00555669 -0.000722814
0.000106351 0.00740469 -0.000898657
0.000102449 0.00767398 -0.000924144
8.62158e-05 0.00771811 -0.000934533
6.9658e-05 0.00772902 -0.000940498
5.6879e-05 0.00773361 -0.000944141
4.86251e-05 0.00773665 -0.000946531
4.4431e-05 0.00773947 -0.0009482
4.34202e-05 0.00774251 -0.000949368
4.45401e-05 0.0077459 -0.000950078
4.65728e-05 0.00774952 -0.000950267
4.8064e-05 0.00775307 -0.000949789
4.72261e-05 0.00775595 -0.000948419
4.18373e-05 0.00775716 -0.000945838
2.91556e-05 0.00775515 -0.000941642
5.911e-06 0.00774757 -0.000935378
-3.11593e-05 0.00772959 -0.000926712
-8.12985e-05 0.00767725 -0.00091544
-0.000118987 0.0074064 -0.000893581
-5.94935e-05 0.00556824 -0.000725029
8.84053e-05 0.00688483 -0.000830914
0.000127382 0.00925386 -0.00103226
0.000123096 0.00960439 -0.00106093
0.000103588 0.009658 -0.00107256
8.33529e-05 0.00966906 -0.00107923
6.74356e-05 0.00967294 -0.00108329
5.68199e-05 0.00967539 -0.00108594
5.10189e-05 0.00967787 -0.0010878
4.90488e-05 0.00968089 -0.00108912
4.97108e-05 0.00968459 -0.00108996
5.16021e-05 0.00968891 -0.00109024
5.30261e-05 0.00969354 -0.00108981
5.18683e-05 0.00969788 -0.00108839
4.54711e-05 0.00970082 -0.0010856
3.05349e-05 0.0097006 -0.00108097
3.13337e-06 0.00969447 -0.00107394
-4.05768e-05 0.0096763 -0.00106414
-9.93943e-05 0.00961351 -0.0010514
-0.000142448 0.00925975 -0.00102669
-7.12241e-05 0.00689846 -0.000833339
0.000102918 0.00840505 -0.000957064
0.000148315 0.0113773 -0.00118916
0.000142932 0.0118228 -0.00122179
0.000119564 0.0118867 -0.00123482
9.52968e-05 0.0118971 -0.00124219
7.61004e-05 0.0118996 -0.00124662
6.31581e-05 0.0119009 -0.00124949
5.59329e-05 0.0119026 -0.00125151
5.3317e-05 0.0119054 -0.00125299
5.3959e-05 0.0119093 -0.00125398
5.62646e-05 0.0119143 -0.0012544
5.82771e-05 0.0119203 -0.00125407
5.75147e-05 0.0119266 -0.00125267
5.08066e-05 0.011932 -0.00124976
3.417e-05 0.0119346 -0.00124473
2.84687e-06 0.0119312 -0.00123694
-4.77839e-05 0.0119138 -0.0012259
-0.000116202 0.0118394 -0.0012114
-0.000165885 0.0113883 -0.00118306
-8.29424e-05 0.00842067 -0.000959927
0.000117864 0.0101543 -0.00110497
0.000168949 0.0138248 -0.00137422
0.000161392 0.0143801 -0.00141174
0.000133325 0.014455 -0.0014263
0.00010455 0.0144636 -0.00143434
8.19118e-05 0.0144635 -0.00143904
6.67189e-05 0.0144628 -0.00144205
5.83351e-05 0.0144633 -0.0014442
5.55087e-05 0.0144653 -0.00144581
5.67328e-05 0.0144692 -0.00144696
6.02244e-05 0.014475 -0.00144757
6.3757e-05 0.0144826 -0.00144743
6.44397e-05 0.0144915 -0.00144616
5.84911e-05 0.0145004 -0.00144325
4.10668e-05 0.0145073 -0.00143796
6.30644e-06 0.0145083 -0.00142946
-5.15207e-05 0.0144934 -0.00141709
-0.000130828 0.0144066 -0.00140052
-0.000189023 0.0138419 -0.00136758
-9.45114e-05 0.0101717 -0.00110856
0.000132957 0.0121793 -0.00128138
0.000188354 0.0166595 -0.0015962
0.000176971 0.0173409 -0.00163976
0.00014305 0.0174266 -0.00165596
0.000109206 0.0174314 -0.00166451
8.3021e-05 0.0174273 -0.00166934
6.57931e-05 0.0174236 -0.00167236
5.67042e-05 0.0174219 -0.00167453
5.4329e-05 0.0174226 -0.00167623
5.70102e-05 0.0174261 -0.00167755
6.27942e-05 0.0174326 -0.0016784
6.91973e-05 0.017442 -0.00167855
7.28936e-05 0.0174543 -0.00167758
6.93853e-05 0.0174682 -0.00167487
5.273e-05 0.0174814 -0.00166954
1.55635e-05 0.0174895 -0.0016605
-4.95054e-05 0.0174798 -0.0016468
-0.000141313 0.0173806 -0.00162782
-0.000210737 0.0166846 -0.00158904
-0.000105369 0.0121981 -0.00128606
0.000147301 0.0145452 -0.00149869
0.00020437 0.0199681 -0.00187099
0.000186596 0.0207931 -0.0019221
0.000145282 0.020888 -0.00193994
0.000105815 0.0208862 -0.00194873
7.62048e-05 0.0208758 -0.00195339
5.74806e-05 0.0208674 -0.00195621
4.85026e-05 0.0208624 -0.00195826
4.76272e-05 0.0208609 -0.00195997
5.3064e-05 0.0208634 -0.00196142
6.27392e-05 0.0208702 -0.00196255
7.3968e-05 0.0208818 -0.00196311
8.30107e-05 0.0208982 -0.00196266
8.45724e-05 0.0209187 -0.00196048
7.13344e-05 0.0209413 -0.00195548
3.38513e-05 0.0209605 -0.00194625
-3.7833e-05 0.0209606 -0.00193139
-0.000143922 0.0208508 -0.00190967
-0.000228455 0.0200041 -0.00186337
-0.000114228 0.0145646 -0.00150492
0.000158859 0.0173516 -0.00178025
0.0002126 0.02388 -0.00222821
0.000184439 0.0248663 -0.00228887
0.000133792 0.0249668 -0.00230815
8.84081e-05 0.0249536 -0.00231665
5.60615e-05 0.0249336 -0.00232067
3.7044e-05 0.0249184 -0.00232295
2.96606e-05 0.0249084 -0.00232465
3.19804e-05 0.0249036 -0.00232622
4.2115e-05 0.0249041 -0.00232776
5.79738e-05 0.0249107 -0.00232919
7.68097e-05 0.0249243 -0.00233029
9.4599e-05 0.0249457 -0.00233063
0.000105271 0.0249749 -0.00232939
9.98705e-05 0.0250105 -0.00232532
6.61007e-05 0.0250469 -0.00231657
-1.00098e-05 0.0250646 -0.00230106
-0.000131863 0.0249494 -0.00227646
-0.000237006 0.0239316 -0.00222026
-0.000118503 0.0173703 -0.00178863
0.000163305 0.0207654 -0.00217194
0.000204333 0.0286057 -0.00272539
0.000159589 0.0297699 -0.00279833
9.74559e-05 0.0298675 -0.00281836
4.67349e-05 0.0298358 -0.0028256
1.36146e-05 0.0298018 -0.00282826
-3.17478e-06 0.0297769 -0.00282949
-6.25869e-06 0.0297599 -0.00283051
2.04489e-06 0.02975 -0.00283171
1.98106e-05 0.0297473 -0.00283319
4.51091e-05 0.0297528 -0.0028349
7.54088e-05 0.0297679 -0.00283667
0.00010674 0.0297946 -0.00283808
0.000132533 0.0298346 -0.00283837
0.00014214 0.0298878 -0.0028361
0.000119553 0.0299498 -0.00282901
4.45631e-05 0.0299975 -0.00281401
-9.29598e-05 0.0298889 -0.00278687
-0.000226306 0.0286807 -0.00271745
-0.000113153 0.0207814 -0.00218319
0.000151326 0.0250926 -0.00276952
0.000162019 0.0345183 -0.00348118
9.12998e-05 0.035871 -0.00357001
1.61267e-05 0.0359501 -0.00358913
-3.70236e-05 0.0358892 -0.00359344
-6.62025e-05 0.0358354 -0.00359362
-7.5636e-05 0.0357973 -0.00359311
-6.94423e-05 0.035771 -0.00359297
-5.0457e-05 0.0357542 -0.00359348
-2.05432e-05 0.0357465 -0.00359468
1.88096e-05 0.0357492 -0.00359656
6.57587e-05 0.0357647 -0.00359902
0.000117073 0.0357963 -0.0036018
0.000166496 0.0358482 -0.00360425
0.000202284 0.0359237 -0.00360499
0.000204219 0.036022 -0.00360142
0.000142843 0.0361189 -0.00358928
-5.31206e-06 0.0360406 -0.00356122
-0.000176416 0.0346296 -0.0034741
-8.8208e-05 0.0251027 -0.00278452
0.00010194 0.0309451 -0.00378887
4.8922e-05 0.0423413 -0.00475906
-6.11246e-05 0.0438767 -0.00486826
-0.000147634 0.0439091 -0.00488288
-0.000194561 0.0438044 -0.00488153
-0.000209209 0.0437244 -0.00487767
-0.000200966 0.0436698 -0.00487448
-0.000176186 0.0436318 -0.00487259
-0.000138349 0.043606 -0.00487197
-8.909e-05 0.0435916 -0.00487257
-2.90589e-05 0.0435897 -0.00487439
4.13034e-05 0.0436035 -0.00487745
0.00012068 0.043638 -0.00488175
0.000204879 0.0437007 -0.00488697
0.000283164 0.0438009 -0.00489212
0.000332353 0.043946 -0.00489476
0.000310977 0.0441186 -0.00488969
0.000170821 0.0441143 -0.0048651
-4.64772e-05 0.0425094 -0.00475487
-2.32386e-05 0.0309449 -0.0038086
-3.53564e-05 0.0396603 -0.00575165
-0.000215798 0.0535999 -0.00718061
-0.000380592 0.0552716 -0.00731422
-0.00046562 0.0552118 -0.00731733
-0.000483851 0.0550472 -0.00730625
-0.000460752 0.0549363 -0.0072964
-0.000413969 0.0548636 -0.00728952
-0.000352834 0.0548129 -0.00728521
-0.000281428 0.0547774 -0.00728297
-0.000200824 0.0547551 -0.00728257
-0.000110267 0.054747 -0.00728398
-7.84389e-06 0.0547564 -0.00728738
0.00010875 0.0547899 -0.00729307
0.000240428 0.0548582 -0.00730134
0.000382375 0.0549788 -0.00731212
0.000514545 0.0551743 -0.00732411
0.000585735 0.0554492 -0.00733259
0.000507678 0.0555891 -0.00732104
0.000251794 0.053853 -0.0071835
0.000125897 0.039646 -0.00577706
-0.000392624 0.0542581 -0.00984549
-0.000820038 0.0715372 -0.0120733
-0.0010416 0.0732041 -0.0122239
-0.00107779 0.0729948 -0.0122029
-0.00101108 0.0727641 -0.012177
-0.000899117 0.0726262 -0.0121592
-0.000771005 0.0725395 -0.0121479
-0.000639019 0.0724795 -0.0121407
-0.00050703 0.0724369 -0.0121365
-0.000374589 0.0724085 -0.0121348
-0.000238524 0.0723945 -0.0121354
-9.33145e-05 0.0723978 -0.0121388
6.8981e-05 0.0724248 -0.0121454
0.000258443 0.0724883 -0.0121564
0.000484706 0.0726125 -0.012173
0.000746911 0.0728392 -0.0121966
0.00100547 0.0732165 -0.0122262
0.00113083 0.0735784 -0.0122446
0.00092065 0.0718906 -0.0120898
0.000460325 0.054235 -0.00987835
-0.00134163 0.0784177 -0.0155172
-0.00219023 0.0988429 -0.0181556
-0.00236884 0.100158 -0.0182298
-0.00219871 0.0997935 -0.0181634
-0.0019073 0.0995372 -0.0181178
-0.00159734 0.0994014 -0.0180912
-0.00130645 0.0993201 -0.0180753
-0.00104469 0.0992651 -0.0180653
-0.000811018 0.0992264 -0.0180593
-0.000599668 0.0992002 -0.0180563
-0.000402154 0.0991859 -0.0180562
-0.000207278 0.0991848 -0.0180592
2.33971e-07 0.0992017 -0.0180663
0.000242493 0.0992472 -0.018079
0.000552377 0.0993443 -0.0181004
0.000975205 0.0995425 -0.0181354
0.00154949 0.0999315 -0.018191
0.00219953 0.100478 -0.0182642
0.00242359 0.0992044 -0.0181907
0.0012118 0.0784189 -0.0155607
-0.00349506 0.0392089 0.0547878
-0.00443217 0.0494215 0.0622693
-0.00400672 0.0500789 0.0626667
-0.0032636 0.0498968 0.0627707
-0.00256034 0.0497686 0.0628284
-0.00197697 0.0497007 0.0628615
-0.00151167 0.04966 0.0628817
-0.00114332 0.0496326 0.0628946
-0.000849045 0.0496132 0.0629028
-0.000608347 0.0496001 0.0629074
-0.000403116 0.0495929 0.0629087
-0.000216105 0.0495924 0.0629065
-2.81187e-05 0.0496009 0.0628997
0.000187296 0.0496236 0.0628865
0.000475392 0.0496721 0.0628625
0.00092765 0.0497712 0.0628196
0.00173999 0.0499658 0.062742
0.00323411 0.0502388 0.0626053
0.00506658 0.0496022 0.0621786
0.00253329 0.0392094 0.0547574
-1.857e-05 0.000364551 -0.00082007
-3.25134e-05 0.000454899 -0.00103097
-3.91107e-05 0.000466327 -0.00106585
-3.99955e-05 0.000469374 -0.00107787
-3.69218e-05 0.000470738 -0.00108391
-3.11921e-05 0.000471561 -0.00108752
-2.37109e-05 0.000472185 -0.00108998
-1.51129e-05 0.00047273 -0.00109178
-5.87564e-06 0.000473232 -0.00109307
3.6069e-06 0.000473692 -0.00109388
1.29712e-05 0.000474086 -0.00109411
2.18496e-05 0.000474375 -0.00109361
2.98491e-05 0.000474487 -0.00109214
3.65513e-05 0.000474308 -0.0010894
4.15415e-05 0.000473667 -0.00108501
4.44438e-05 0.000472315 -0.00107842
4.49457e-05 0.000469863 -0.00106895
4.26327e-05 0.000465432 -0.0010549
3.52527e-05 0.000453172 -0.00102346
1.76264e-05 0.00036358 -0.000823578
-1.49728e-05 0.00103742 -0.00107719
-2.879e-05 0.00132848 -0.00139947
-3.74673e-05 0.00136817 -0.00145293
-4.07576e-05 0.00137741 -0.00146962
-3.95039e-05 0.00138099 -0.00147762
-3.46956e-05 0.00138296 -0.00148237
-2.72021e-05 0.00138441 -0.00148559
-1.7745e-05 0.00138567 -0.00148794
-6.93909e-06 0.00138685 -0.00148963
4.65673e-06 0.00138795 -0.00149069
1.64952e-05 0.00138891 -0.00149099
2.79987e-05 0.00138962 -0.00149034
3.85296e-05 0.0013899 -0.00148846
4.73891e-05 0.00138943 -0.00148493
5.3829e-05 0.00138778 -0.00147924
5.70694e-05 0.00138422 -0.00147063
5.63287e-05 0.00137761 -0.00145801
5.08071e-05 0.00136472 -0.00143839
3.90886e-05 0.00132382 -0.00138929
1.95443e-05 0.00103782 -0.00108245
3.34504e-06 0.00191494 -0.00120543
-2.87839e-06 0.00250762 -0.00156795
-1.14681e-05 0.00259106 -0.00162833
-1.74773e-05 0.00260842 -0.00164736
-1.96354e-05 0.00261445 -0.00165654
-1.81253e-05 0.00261758 -0.00166199
-1.35274e-05 0.00261981 -0.00166568
-6.48413e-06 0.00262175 -0.00166836
2.37333e-06 0.00262358 -0.00167028
1.24162e-05 0.00262533 -0.00167147
2.29799e-05 0.00262691 -0.00167181
3.33242e-05 0.00262812 -0.00167108
4.25953e-05 0.00262865 -0.00166894
4.9799e-05 0.002628 -0.00166494
5.37764e-05 0.00262539 -0.00165845
5.31436e-05 0.00261964 -0.00164863
4.62201e-05 0.00260864 -0.00163423
3.13364e-05 0.00258555 -0.00161187
1.06266e-05 0.002501 -0.00155635
5.31329e-06 0.00191786 -0.00121103
2.38452e-05 0.00295172 -0.00135535
2.71427e-05 0.00394282 -0.00175732
1.91565e-05 0.00408581 -0.00182386
1.02137e-05 0.00411266 -0.00184528
4.19008e-06 0.00412097 -0.00185581
1.90338e-06 0.00412505 -0.0018621
3.11976e-06 0.00412789 -0.00186634
7.28605e-06 0.00413036 -0.00186941
1.37489e-05 0.00413276 -0.00187161
2.17937e-05 0.00413511 -0.00187298
3.06215e-05 0.0041373 -0.00187337
3.9305e-05 0.00413908 -0.00187255
4.67372e-05 0.00414003 -0.00187013
5.15816e-05 0.00413944 -0.00186558
5.22005e-05 0.00413626 -0.00185818
4.65269e-05 0.00412885 -0.00184698
3.1944e-05 0.00411412 -0.00183061
6.23879e-06 0.00408003 -0.00180556
-2.3176e-05 0.0039361 -0.00174438
-1.1588e-05 0.00295733 -0.00136094
4.29511e-05 0.0041413 -0.00154115
5.56287e-05 0.00562817 -0.0019921
4.82271e-05 0.00584783 -0.00206599
3.62884e-05 0.00588551 -0.00209011
2.6383e-05 0.00589576 -0.00210216
2.03671e-05 0.00590045 -0.00210938
1.83512e-05 0.00590364 -0.00211425
1.9854e-05 0.00590646 -0.00211777
2.41775e-05 0.00590927 -0.00212031
3.05026e-05 0.00591214 -0.00212189
3.78778e-05 0.00591496 -0.00212238
4.51679e-05 0.00591741 -0.00212148
5.09901e-05 0.00591899 -0.00211876
5.3639e-05 0.00591884 -0.00211361
5.09773e-05 0.00591565 -0.00210518
4.02623e-05 0.00590736 -0.00209241
1.80334e-05 0.00588982 -0.00207381
-1.81257e-05 0.00584388 -0.00204564
-5.50311e-05 0.00562318 -0.00197766
-2.75155e-05 0.00414952 -0.00154677
6.04088e-05 0.00549836 -0.00176515
8.17296e-05 0.00758245 -0.00227649
7.45979e-05 0.00789746 -0.00235937
5.95349e-05 0.0079475 -0.00238658
4.57674e-05 0.00795924 -0.00240028
3.61715e-05 0.00796411 -0.00240851
3.11759e-05 0.00796733 -0.00241406
3.03448e-05 0.00797026 -0.00241807
3.29174e-05 0.00797333 -0.00242098
3.79548e-05 0.00797665 -0.00242283
4.4337e-05 0.0079801 -0.00242346
5.07062e-05 0.00798338 -0.00242253
5.53846e-05 0.00798588 -0.00241954
5.62748e-05 0.00798662 -0.00241377
5.07211e-05 0.00798406 -0.00240424
3.5307e-05 0.00797576 -0.00238972
5.77802e-06 0.00795635 -0.00236857
-4.03353e-05 0.0078973 -0.00233675
-8.40918e-05 0.00758066 -0.00226034
-4.20459e-05 0.00550906 -0.001771
7.67637e-05 0.00704888 -0.00202929
0.000105921 0.00983912 -0.00261357
9.85619e-05 0.0102698 -0.00270735
8.00985e-05 0.010334 -0.00273806
6.23817e-05 0.0103467 -0.00275352
4.92755e-05 0.0103512 -0.00276278
4.14962e-05 0.010354 -0.00276902
3.86304e-05 0.0103568 -0.00277355
3.98373e-05 0.0103599 -0.00277686
4.40453e-05 0.0103636 -0.00277903
4.99544e-05 0.0103678 -0.00277987
5.59675e-05 0.010372 -0.002779
6.0088e-05 0.0103758 -0.0027758
5.97924e-05 0.010378 -0.00276945
5.18658e-05 0.0103768 -0.00275881
3.21723e-05 0.0103695 -0.0027424
-4.36895e-06 0.0103491 -0.00271839
-6.02708e-05 0.0102752 -0.00268226
-0.00011094 0.00984167 -0.0025955
-5.54702e-05 0.00706194 -0.00203564
9.25843e-05 0.00882566 -0.0023368
0.000128792 0.0124419 -0.00300804
0.000120526 0.0130103 -0.00311491
9.82023e-05 0.0130905 -0.00314957
7.63038e-05 0.0131035 -0.00316686
5.96512e-05 0.013107 -0.00317714
4.92143e-05 0.0131091 -0.00318403
4.45762e-05 0.0131113 -0.00318906
4.47996e-05 0.0131143 -0.00319281
4.86694e-05 0.0131182 -0.00319536
5.46958e-05 0.0131231 -0.0031965
6.10262e-05 0.0131285 -0.00319579
6.53124e-05 0.013134 -0.00319253
6.45546e-05 0.0131383 -0.00318571
5.4902e-05 0.0131394 -0.00317399
3.1393e-05 0.0131341 -0.00315562
-1.19999e-05 0.0131137 -0.00312842
-7.79314e-05 0.0130229 -0.00308724
-0.000136201 0.0124498 -0.0029879
-6.81005e-05 0.00884094 -0.00234398
0.000108231 0.010867 -0.0026931
0.000150604 0.0154436 -0.00346761
0.000140488 0.0161737 -0.00359013
0.000113618 0.016272 -0.00362919
8.71541e-05 0.0162845 -0.00364831
6.68351e-05 0.0162861 -0.0036595
5.38343e-05 0.0162865 -0.00366696
4.76967e-05 0.0162877 -0.00367245
4.7369e-05 0.0162902 -0.00367663
5.14845e-05 0.0162943 -0.00367961
5.83571e-05 0.0162999 -0.00368117
6.58632e-05 0.0163068 -0.00368079
7.12678e-05 0.0163145 -0.00367766
7.10239e-05 0.0163218 -0.0036706
6.05231e-05 0.0163264 -0.00365797
3.38013e-05 0.0163246 -0.00363766
-1.63389e-05 0.0163053 -0.003607