# vtk DataFile Version 2.0 
Visualization 
ASCII 
DATASET STRUCTURED_GRID 
DIMENSIONS 21 21 11
POINTS 4851 float
-0.1 -0.1 0.9
0 -0.1 0.9
0.1 -0.1 0.9
0.2 -0.1 0.9
0.3 -0.1 0.9
0.4 -0.1 0.9
0.5 -0.1 0.9
0.6 -0.1 0.9
0.7 -0.1 0.9
0.8 -0.1 0.9
0.9 -0.1 0.9
1 -0.1 0.9
1.1 -0.1 0.9
1.2 -0.1 0.9
1.3 -0.1 0.9
1.4 -0.1 0.9
1.5 -0.1 0.9
1.6 -0.1 0.9
1.7 -0.1 0.9
1.8 -0.1 0.9
1.9 -0.1 0.9
-0.1 0 0.9
0 0 0.9
0.1 0 0.9
0.2 0 0.9
0.3 0 0.9
0.4 0 0.9
0.5 0 0.9
0.6 0 0.9
0.7 0 0.9
0.8 0 0.9
0.9 0 0.9
1 0 0.9
1.1 0 0.9
1.2 0 0.9
1.3 0 0.9
1.4 0 0.9
1.5 0 0.9
1.6 0 0.9
1.7 0 0.9
1.8 0 0.9
1.9 0 0.9
-0.1 0.1 0.9
0 0.1 0.9
0.1 0.1 0.9
0.2 0.1 0.9
0.3 0.1 0.9
0.4 0.1 0.9
0.5 0.1 0.9
0.6 0.1 0.9
0.7 0.1 0.9
0.8 0.1 0.9
0.9 0.1 0.9
1 0.1 0.9
1.1 0.1 0.9
1.2 0.1 0.9
1.3 0.1 0.9
1.4 0.1 0.9
1.5 0.1 0.9
1.6 0.1 0.9
1.7 0.1 0.9
1.8 0.1 0.9
1.9 0.1 0.9
-0.1 0.2 0.9
0 0.2 0.9
0.1 0.2 0.9
0.2 0.2 0.9
0.3 0.2 0.9
0.4 0.2 0.9
0.5 0.2 0.9
0.6 0.2 0.9
0.7 0.2 0.9
0.8 0.2 0.9
0.9 0.2 0.9
1 0.2 0.9
1.1 0.2 0.9
1.2 0.2 0.9
1.3 0.2 0.9
1.4 0.2 0.9
1.5 0.2 0.9
1.6 0.2 0.9
1.7 0.2 0.9
1.8 0.2 0.9
1.9 0.2 0.9
-0.1 0.3 0.9
0 0.3 0.9
0.1 0.3 0.9
0.2 0.3 0.9
0.3 0.3 0.9
0.4 0.3 0.9
0.5 0.3 0.9
0.6 0.3 0.9
0.7 0.3 0.9
0.8 0.3 0.9
0.9 0.3 0.9
1 0.3 0.9
1.1 0.3 0.9
1.2 0.3 0.9
1.3 0.3 0.9
1.4 0.3 0.9
1.5 0.3 0.9
1.6 0.3 0.9
1.7 0.3 0.9
1.8 0.3 0.9
1.9 0.3 0.9
-0.1 0.4 0.9
0 0.4 0.9
0.1 0.4 0.9
0.2 0.4 0.9
0.3 0.4 0.9
0.4 0.4 0.9
0.5 0.4 0.9
0.6 0.4 0.9
0.7 0.4 0.9
0.8 0.4 0.9
0.9 0.4 0.9
1 0.4 0.9
1.1 0.4 0.9
1.2 0.4 0.9
1.3 0.4 0.9
1.4 0.4 0.9
1.5 0.4 0.9
1.6 0.4 0.9
1.7 0.4 0.9
1.8 0.4 0.9
1.9 0.4 0.9
-0.1 0.5 0.9
0 0.5 0.9
0.1 0.5 0.9
0.2 0.5 0.9
0.3 0.5 0.9
0.4 0.5 0.9
0.5 0.5 0.9
0.6 0.5 0.9
0.7 0.5 0.9
0.8 0.5 0.9
0.9 0.5 0.9
1 0.5 0.9
1.1 0.5 0.9
1.2 0.5 0.9
1.3 0.5 0.9
1.4 0.5 0.9
1.5 0.5 0.9
1.6 0.5 0.9
1.7 0.5 0.9
1.8 0.5 0.9
1.9 0.5 0.9
-0.1 0.6 0.9
0 0.6 0.9
0.1 0.6 0.9
0.2 0.6 0.9
0.3 0.6 0.9
0.4 0.6 0.9
0.5 0.6 0.9
0.6 0.6 0.9
0.7 0.6 0.9
0.8 0.6 0.9
0.9 0.6 0.9
1 0.6 0.9
1.1 0.6 0.9
1.2 0.6 0.9
1.3 0.6 0.9
1.4 0.6 0.9
1.5 0.6 0.9
1.6 0.6 0.9
1.7 0.6 0.9
1.8 0.6 0.9
1.9 0.6 0.9
-0.1 0.7 0.9
0 0.7 0.9
0.1 0.7 0.9
0.2 0.7 0.9
0.3 0.7 0.9
0.4 0.7 0.9
0.5 0.7 0.9
0.6 0.7 0.9
0.7 0.7 0.9
0.8 0.7 0.9
0.9 0.7 0.9
1 0.7 0.9
1.1 0.7 0.9
1.2 0.7 0.9
1.3 0.7 0.9
1.4 0.7 0.9
1.5 0.7 0.9
1.6 0.7 0.9
1.7 0.7 0.9
1.8 0.7 0.9
1.9 0.7 0.9
-0.1 0.8 0.9
0 0.8 0.9
0.1 0.8 0.9
0.2 0.8 0.9
0.3 0.8 0.9
0.4 0.8 0.9
0.5 0.8 0.9
0.6 0.8 0.9
0.7 0.8 0.9
0.8 0.8 0.9
0.9 0.8 0.9
1 0.8 0.9
1.1 0.8 0.9
1.2 0.8 0.9
1.3 0.8 0.9
1.4 0.8 0.9
1.5 0.8 0.9
1.6 0.8 0.9
1.7 0.8 0.9
1.8 0.8 0.9
1.9 0.8 0.9
-0.1 0.9 0.9
0 0.9 0.9
0.1 0.9 0.9
0.2 0.9 0.9
0.3 0.9 0.9
0.4 0.9 0.9
0.5 0.9 0.9
0.6 0.9 0.9
0.7 0.9 0.9
0.8 0.9 0.9
0.9 0.9 0.9
1 0.9 0.9
1.1 0.9 0.9
1.2 0.9 0.9
1.3 0.9 0.9
1.4 0.9 0.9
1.5 0.9 0.9
1.6 0.9 0.9
1.7 0.9 0.9
1.8 0.9 0.9
1.9 0.9 0.9
-0.1 1 0.9
0 1 0.9
0.1 1 0.9
0.2 1 0.9
0.3 1 0.9
0.4 1 0.9
0.5 1 0.9
0.6 1 0.9
0.7 1 0.9
0.8 1 0.9
0.9 1 0.9
1 1 0.9
1.1 1 0.9
1.2 1 0.9
1.3 1 0.9
1.4 1 0.9
1.5 1 0.9
1.6 1 0.9
1.7 1 0.9
1.8 1 0.9
1.9 1 0.9
-0.1 1.1 0.9
0 1.1 0.9
0.1 1.1 0.9
0.2 1.1 0.9
0.3 1.1 0.9
0.4 1.1 0.9
0.5 1.1 0.9
0.6 1.1 0.9
0.7 1.1 0.9
0.8 1.1 0.9
0.9 1.1 0.9
1 1.1 0.9
1.1 1.1 0.9
1.2 1.1 0.9
1.3 1.1 0.9
1.4 1.1 0.9
1.5 1.1 0.9
1.6 1.1 0.9
1.7 1.1 0.9
1.8 1.1 0.9
1.9 1.1 0.9
-0.1 1.2 0.9
0 1.2 0.9
0.1 1.2 0.9
0.2 1.2 0.9
0.3 1.2 0.9
0.4 1.2 0.9
0.5 1.2 0.9
0.6 1.2 0.9
0.7 1.2 0.9
0.8 1.2 0.9
0.9 1.2 0.9
1 1.2 0.9
1.1 1.2 0.9
1.2 1.2 0.9
1.3 1.2 0.9
1.4 1.2 0.9
1.5 1.2 0.9
1.6 1.2 0.9
1.7 1.2 0.9
1.8 1.2 0.9
1.9 1.2 0.9
-0.1 1.3 0.9
0 1.3 0.9
0.1 1.3 0.9
0.2 1.3 0.9
0.3 1.3 0.9
0.4 1.3 0.9
0.5 1.3 0.9
0.6 1.3 0.9
0.7 1.3 0.9
0.8 1.3 0.9
0.9 1.3 0.9
1 1.3 0.9
1.1 1.3 0.9
1.2 1.3 0.9
1.3 1.3 0.9
1.4 1.3 0.9
1.5 1.3 0.9
1.6 1.3 0.9
1.7 1.3 0.9
1.8 1.3 0.9
1.9 1.3 0.9
-0.1 1.4 0.9
0 1.4 0.9
0.1 1.4 0.9
0.2 1.4 0.9
0.3 1.4 0.9
0.4 1.4 0.9
0.5 1.4 0.9
0.6 1.4 0.9
0.7 1.4 0.9
0.8 1.4 0.9
0.9 1.4 0.9
1 1.4 0.9
1.1 1.4 0.9
1.2 1.4 0.9
1.3 1.4 0.9
1.4 1.4 0.9
1.5 1.4 0.9
1.6 1.4 0.9
1.7 1.4 0.9
1.8 1.4 0.9
1.9 1.4 0.9
-0.1 1.5 0.9
0 1.5 0.9
0.1 1.5 0.9
0.2 1.5 0.9
0.3 1.5 0.9
0.4 1.5 0.9
0.5 1.5 0.9
0.6 1.5 0.9
0.7 1.5 0.9
0.8 1.5 0.9
0.9 1.5 0.9
1 1.5 0.9
1.1 1.5 0.9
1.2 1.5 0.9
1.3 1.5 0.9
1.4 1.5 0.9
1.5 1.5 0.9
1.6 1.5 0.9
1.7 1.5 0.9
1.8 1.5 0.9
1.9 1.5 0.9
-0.1 1.6 0.9
0 1.6 0.9
0.1 1.6 0.9
0.2 1.6 0.9
0.3 1.6 0.9
0.4 1.6 0.9
0.5 1.6 0.9
0.6 1.6 0.9
0.7 1.6 0.9
0.8 1.6 0.9
0.9 1.6 0.9
1 1.6 0.9
1.1 1.6 0.9
1.2 1.6 0.9
1.3 1.6 0.9
1.4 1.6 0.9
1.5 1.6 0.9
1.6 1.6 0.9
1.7 1.6 0.9
1.8 1.6 0.9
1.9 1.6 0.9
-0.1 1.7 0.9
0 1.7 0.9
0.1 1.7 0.9
0.2 1.7 0.9
0.3 1.7 0.9
0.4 1.7 0.9
0.5 1.7 0.9
0.6 1.7 0.9
0.7 1.7 0.9
0.8 1.7 0.9
0.9 1.7 0.9
1 1.7 0.9
1.1 1.7 0.9
1.2 1.7 0.9
1.3 1.7 0.9
1.4 1.7 0.9
1.5 1.7 0.9
1.6 1.7 0.9
1.7 1.7 0.9
1.8 1.7 0.9
1.9 1.7 0.9
-0.1 1.8 0.9
0 1.8 0.9
0.1 1.8 0.9
0.2 1.8 0.9
0.3 1.8 0.9
0.4 1.8 0.9
0.5 1.8 0.9
0.6 1.8 0.9
0.7 1.8 0.9
0.8 1.8 0.9
0.9 1.8 0.9
1 1.8 0.9
1.1 1.8 0.9
1.2 1.8 0.9
1.3 1.8 0.9
1.4 1.8 0.9
1.5 1.8 0.9
1.6 1.8 0.9
1.7 1.8 0.9
1.8 1.8 0.9
1.9 1.8 0.9
-0.1 1.9 0.9
0 1.9 0.9
0.1 1.9 0.9
0.2 1.9 0.9
0.3 1.9 0.9
0.4 1.9 0.9
0.5 1.9 0.9
0.6 1.9 0.9
0.7 1.9 0.9
0.8 1.9 0.9
0.9 1.9 0.9
1 1.9 0.9
1.1 1.9 0.9
1.2 1.9 0.9
1.3 1.9 0.9
1.4 1.9 0.9
1.5 1.9 0.9
1.6 1.9 0.9
1.7 1.9 0.9
1.8 1.9 0.9
1.9 1.9 0.9
-0.1 -0.1 1
0 -0.1 1
0.1 -0.1 1
0.2 -0.1 1
0.3 -0.1 1
0.4 -0.1 1
0.5 -0.1 1
0.6 -0.1 1
0.7 -0.1 1
0.8 -0.1 1
0.9 -0.1 1
1 -0.1 1
1.1 -0.1 1
1.2 -0.1 1
1.3 -0.1 1
1.4 -0.1 1
1.5 -0.1 1
1.6 -0.1 1
1.7 -0.1 1
1.8 -0.1 1
1.9 -0.1 1
-0.1 0 1
0 0 1
0.1 0 1
0.2 0 1
0.3 0 1
0.4 0 1
0.5 0 1
0.6 0 1
0.7 0 1
0.8 0 1
0.9 0 1
1 0 1
1.1 0 1
1.2 0 1
1.3 0 1
1.4 0 1
1.5 0 1
1.6 0 1
1.7 0 1
1.8 0 1
1.9 0 1
-0.1 0.1 1
0 0.1 1
0.1 0.1 1
0.2 0.1 1
0.3 0.1 1
0.4 0.1 1
0.5 0.1 1
0.6 0.1 1
0.7 0.1 1
0.8 0.1 1
0.9 0.1 1
1 0.1 1
1.1 0.1 1
1.2 0.1 1
1.3 0.1 1
1.4 0.1 1
1.5 0.1 1
1.6 0.1 1
1.7 0.1 1
1.8 0.1 1
1.9 0.1 1
-0.1 0.2 1
0 0.2 1
0.1 0.2 1
0.2 0.2 1
0.3 0.2 1
0.4 0.2 1
0.5 0.2 1
0.6 0.2 1
0.7 0.2 1
0.8 0.2 1
0.9 0.2 1
1 0.2 1
1.1 0.2 1
1.2 0.2 1
1.3 0.2 1
1.4 0.2 1
1.5 0.2 1
1.6 0.2 1
1.7 0.2 1
1.8 0.2 1
1.9 0.2 1
-0.1 0.3 1
0 0.3 1
0.1 0.3 1
0.2 0.3 1
0.3 0.3 1
0.4 0.3 1
0.5 0.3 1
0.6 0.3 1
0.7 0.3 1
0.8 0.3 1
0.9 0.3 1
1 0.3 1
1.1 0.3 1
1.2 0.3 1
1.3 0.3 1
1.4 0.3 1
1.5 0.3 1
1.6 0.3 1
1.7 0.3 1
1.8 0.3 1
1.9 0.3 1
-0.1 0.4 1
0 0.4 1
0.1 0.4 1
0.2 0.4 1
0.3 0.4 1
0.4 0.4 1
0.5 0.4 1
0.6 0.4 1
0.7 0.4 1
0.8 0.4 1
0.9 0.4 1
1 0.4 1
1.1 0.4 1
1.2 0.4 1
1.3 0.4 1
1.4 0.4 1
1.5 0.4 1
1.6 0.4 1
1.7 0.4 1
1.8 0.4 1
1.9 0.4 1
-0.1 0.5 1
0 0.5 1
0.1 0.5 1
0.2 0.5 1
0.3 0.5 1
0.4 0.5 1
0.5 0.5 1
0.6 0.5 1
0.7 0.5 1
0.8 0.5 1
0.9 0.5 1
1 0.5 1
1.1 0.5 1
1.2 0.5 1
1.3 0.5 1
1.4 0.5 1
1.5 0.5 1
1.6 0.5 1
1.7 0.5 1
1.8 0.5 1
1.9 0.5 1
-0.1 0.6 1
0 0.6 1
0.1 0.6 1
0.2 0.6 1
0.3 0.6 1
0.4 0.6 1
0.5 0.6 1
0.6 0.6 1
0.7 0.6 1
0.8 0.6 1
0.9 0.6 1
1 0.6 1
1.1 0.6 1
1.2 0.6 1
1.3 0.6 1
1.4 0.6 1
1.5 0.6 1
1.6 0.6 1
1.7 0.6 1
1.8 0.6 1
1.9 0.6 1
-0.1 0.7 1
0 0.7 1
0.1 0.7 1
0.2 0.7 1
0.3 0.7 1
0.4 0.7 1
0.5 0.7 1
0.6 0.7 1
0.7 0.7 1
0.8 0.7 1
0.9 0.7 1
1 0.7 1
1.1 0.7 1
1.2 0.7 1
1.3 0.7 1
1.4 0.7 1
1.5 0.7 1
1.6 0.7 1
1.7 0.7 1
1.8 0.7 1
1.9 0.7 1
-0.1 0.8 1
0 0.8 1
0.1 0.8 1
0.2 0.8 1
0.3 0.8 1
0.4 0.8 1
0.5 0.8 1
0.6 0.8 1
0.7 0.8 1
0.8 0.8 1
0.9 0.8 1
1 0.8 1
1.1 0.8 1
1.2 0.8 1
1.3 0.8 1
1.4 0.8 1
1.5 0.8 1
1.6 0.8 1
1.7 0.8 1
1.8 0.8 1
1.9 0.8 1
-0.1 0.9 1
0 0.9 1
0.1 0.9 1
0.2 0.9 1
0.3 0.9 1
0.4 0.9 1
0.5 0.9 1
0.6 0.9 1
0.7 0.9 1
0.8 0.9 1
0.9 0.9 1
1 0.9 1
1.1 0.9 1
1.2 0.9 1
1.3 0.9 1
1.4 0.9 1
1.5 0.9 1
1.6 0.9 1
1.7 0.9 1
1.8 0.9 1
1.9 0.9 1
-0.1 1 1
0 1 1
0.1 1 1
0.2 1 1
0.3 1 1
0.4 1 1
0.5 1 1
0.6 1 1
0.7 1 1
0.8 1 1
0.9 1 1
1 1 1
1.1 1 1
1.2 1 1
1.3 1 1
1.4 1 1
1.5 1 1
1.6 1 1
1.7 1 1
1.8 1 1
1.9 1 1
-0.1 1.1 1
0 1.1 1
0.1 1.1 1
0.2 1.1 1
0.3 1.1 1
0.4 1.1 1
0.5 1.1 1
0.6 1.1 1
0.7 1.1 1
0.8 1.1 1
0.9 1.1 1
1 1.1 1
1.1 1.1 1
1.2 1.1 1
1.3 1.1 1
1.4 1.1 1
1.5 1.1 1
1.6 1.1 1
1.7 1.1 1
1.8 1.1 1
1.9 1.1 1
-0.1 1.2 1
0 1.2 1
0.1 1.2 1
0.2 1.2 1
0.3 1.2 1
0.4 1.2 1
0.5 1.2 1
0.6 1.2 1
0.7 1.2 1
0.8 1.2 1
0.9 1.2 1
1 1.2 1
1.1 1.2 1
1.2 1.2 1
1.3 1.2 1
1.4 1.2 1
1.5 1.2 1
1.6 1.2 1
1.7 1.2 1
1.8 1.2 1
1.9 1.2 1
-0.1 1.3 1
0 1.3 1
0.1 1.3 1
0.2 1.3 1
0.3 1.3 1
0.4 1.3 1
0.5 1.3 1
0.6 1.3 1
0.7 1.3 1
0.8 1.3 1
0.9 1.3 1
1 1.3 1
1.1 1.3 1
1.2 1.3 1
1.3 1.3 1
1.4 1.3 1
1.5 1.3 1
1.6 1.3 1
1.7 1.3 1
1.8 1.3 1
1.9 1.3 1
-0.1 1.4 1
0 1.4 1
0.1 1.4 1
0.2 1.4 1
0.3 1.4 1
0.4 1.4 1
0.5 1.4 1
0.6 1.4 1
0.7 1.4 1
0.8 1.4 1
0.9 1.4 1
1 1.4 1
1.1 1.4 1
1.2 1.4 1
1.3 1.4 1
1.4 1.4 1
1.5 1.4 1
1.6 1.4 1
1.7 1.4 1
1.8 1.4 1
1.9 1.4 1
-0.1 1.5 1
0 1.5 1
0.1 1.5 1
0.2 1.5 1
0.3 1.5 1
0.4 1.5 1
0.5 1.5 1
0.6 1.5 1
0.7 1.5 1
0.8 1.5 1
0.9 1.5 1
1 1.5 1
1.1 1.5 1
1.2 1.5 1
1.3 1.5 1
1.4 1.5 1
1.5 1.5 1
1.6 1.5 1
1.7 1.5 1
1.8 1.5 1
1.9 1.5 1
-0.1 1.6 1
0 1.6 1
0.1 1.6 1
0.2 1.6 1
0.3 1.6 1
0.4 1.6 1
0.5 1.6 1
0.6 1.6 1
0.7 1.6 1
0.8 1.6 1
0.9 1.6 1
1 1.6 1
1.1 1.6 1
1.2 1.6 1
1.3 1.6 1
1.4 1.6 1
1.5 1.6 1
1.6 1.6 1
1.7 1.6 1
1.8 1.6 1
1.9 1.6 1
-0.1 1.7 1
0 1.7 1
0.1 1.7 1
0.2 1.7 1
0.3 1.7 1
0.4 1.7 1
0.5 1.7 1
0.6 1.7 1
0.7 1.7 1
0.8 1.7 1
0.9 1.7 1
1 1.7 1
1.1 1.7 1
1.2 1.7 1
1.3 1.7 1
1.4 1.7 1
1.5 1.7 1
1.6 1.7 1
1.7 1.7 1
1.8 1.7 1
1.9 1.7 1
-0.1 1.8 1
0 1.8 1
0.1 1.8 1
0.2 1.8 1
0.3 1.8 1
0.4 1.8 1
0.5 1.8 1
0.6 1.8 1
0.7 1.8 1
0.8 1.8 1
0.9 1.8 1
1 1.8 1
1.1 1.8 1
1.2 1.8 1
1.3 1.8 1
1.4 1.8 1
1.5 1.8 1
1.6 1.8 1
1.7 1.8 1
1.8 1.8 1
1.9 1.8 1
-0.1 1.9 1
0 1.9 1
0.1 1.9 1
0.2 1.9 1
0.3 1.9 1
0.4 1.9 1
0.5 1.9 1
0.6 1.9 1
0.7 1.9 1
0.8 1.9 1
0.9 1.9 1
1 1.9 1
1.1 1.9 1
1.2 1.9 1
1.3 1.9 1
1.4 1.9 1
1.5 1.9 1
1.6 1.9 1
1.7 1.9 1
1.8 1.9 1
1.9 1.9 1
-0.1 -0.1 1.1
0 -0.1 1.1
0.1 -0.1 1.1
0.2 -0.1 1.1
0.3 -0.1 1.1
0.4 -0.1 1.1
0.5 -0.1 1.1
0.6 -0.1 1.1
0.7 -0.1 1.1
0.8 -0.1 1.1
0.9 -0.1 1.1
1 -0.1 1.1
1.1 -0.1 1.1
1.2 -0.1 1.1
1.3 -0.1 1.1
1.4 -0.1 1.1
1.5 -0.1 1.1
1.6 -0.1 1.1
1.7 -0.1 1.1
1.8 -0.1 1.1
1.9 -0.1 1.1
-0.1 0 1.1
0 0 1.1
0.1 0 1.1
0.2 0 1.1
0.3 0 1.1
0.4 0 1.1
0.5 0 1.1
0.6 0 1.1
0.7 0 1.1
0.8 0 1.1
0.9 0 1.1
1 0 1.1
1.1 0 1.1
1.2 0 1.1
1.3 0 1.1
1.4 0 1.1
1.5 0 1.1
[...]
CELL_DATA 4000
VECTORS velocity double 
3.36514e-05 -0.000120017 0.00409008
4.94104e-05 -0.000130178 0.00562718
4.20911e-05 -0.00013699 0.00597099
2.46963e-05 -0.00014388 0.00606623
2.72698e-06 -0.000148155 0.00609899
-2.19782e-05 -0.000150633 0.00609905
-4.81709e-05 -0.000152461 0.00607056
-7.41445e-05 -0.000154252 0.00601607
-9.79411e-05 -0.00015611 0.00593833
-0.000117442 -0.000157849 0.00584033
-0.0001307 -0.000159145 0.00572589
-0.000136229 -0.000159497 0.00560022
-0.000133467 -0.000158386 0.0054705
-0.000123235 -0.000155191 0.00534588
-0.000108339 -0.000149395 0.00523697
-9.38736e-05 -0.000140805 0.00515552
-8.70024e-05 -0.000129826 0.00511172
-9.50675e-05 -0.000118091 0.00508897
-0.000114725 -0.00010823 0.00491126
-5.73624e-05 -8.81717e-05 0.00366403
4.53831e-05 -0.000407603 0.00570357
5.65488e-05 -0.000491558 0.00819907
4.05826e-05 -0.000524985 0.00871761
1.42303e-05 -0.000547134 0.00882982
-1.73183e-05 -0.000559129 0.00886373
-5.28938e-05 -0.000565216 0.00885869
-9.13853e-05 -0.00056901 0.00881179
-0.000130684 -0.00057229 0.00872286
-0.00016808 -0.000575496 0.00859516
-0.000200509 -0.000578214 0.00843331
-0.00022484 -0.000579598 0.00824335
-0.000238396 -0.000578471 0.00803383
-0.000239421 -0.000573418 0.00781637
-0.000227899 -0.000562968 0.00760622
-0.000206485 -0.000545878 0.00742229
-0.000181193 -0.000521463 0.00728855
-0.000162044 -0.000490553 0.00723241
-0.000161216 -0.000456482 0.00724117
-0.000175599 -0.000423777 0.00701837
-8.77993e-05 -0.000349206 0.00506709
2.49017e-05 -0.000871985 0.00603739
1.38139e-05 -0.00109553 0.00843008
-1.72315e-05 -0.00117518 0.00882793
-5.21105e-05 -0.00122066 0.0088862
-8.86096e-05 -0.00124365 0.00890737
-0.00012776 -0.00125436 0.0089013
-0.00016944 -0.00126006 0.00885031
-0.000211781 -0.00126423 0.0087494
-0.000251766 -0.00126785 0.00860089
-0.000285773 -0.00127037 0.00840961
-0.000309929 -0.00127032 0.00818234
-0.000320601 -0.00126568 0.00792892
-0.000315147 -0.00125388 0.00766323
-0.000292836 -0.00123239 0.0074039
-0.0002559 -0.00119902 0.00717543
-0.000210913 -0.00115257 0.00701198
-0.000169961 -0.00109415 0.00696177
-0.000149982 -0.00102888 0.00704982
-0.000155974 -0.000960975 0.00701873
-7.7987e-05 -0.000784811 0.00530083
-1.60026e-05 -0.00150849 0.00586746
-6.36248e-05 -0.00194457 0.00766204
-0.000116129 -0.00209157 0.00778728
-0.000161169 -0.00216909 0.00775772
-0.000201715 -0.00220681 0.00776198
-0.00024217 -0.00222353 0.00775734
-0.000283897 -0.00223139 0.00770697
-0.000325538 -0.00223616 0.00760034
-0.00036386 -0.00223958 0.00743863
-0.000394633 -0.00224095 0.00722648
-0.000413164 -0.00223813 0.00697084
-0.000414711 -0.00222805 0.00668228
-0.00039568 -0.00220695 0.00637657
-0.000354544 -0.00217084 0.00607546
-0.000293214 -0.00211624 0.00580878
-0.000218857 -0.00204132 0.00562074
-0.000146144 -0.00194745 0.00558339
-9.83784e-05 -0.00184139 0.00577991
-9.48515e-05 -0.00172347 0.00607596
-4.74257e-05 -0.00138695 0.00505247
-7.47404e-05 -0.00230918 0.00518929
-0.000172662 -0.0030391 0.00596811
-0.000253245 -0.00327779 0.00568654
-0.000310482 -0.00339734 0.0055336
-0.00035473 -0.0034542 0.00551341
-0.00039496 -0.00347875 0.00550968
-0.000434626 -0.00348938 0.00546145
-0.000473074 -0.00349481 0.00535157
-0.000506901 -0.00349775 0.0051796
-0.000531161 -0.00349744 0.00494984
-0.000540201 -0.00349096 0.00466929
-0.000528112 -0.00347404 0.00434904
-0.000489916 -0.00344144 0.00400675
-0.000423067 -0.00338738 0.0036676
-0.000329154 -0.0033067 0.00336686
-0.00021606 -0.00319648 0.00315974
-0.000101582 -0.00305824 0.00314565
-1.7452e-05 -0.00290005 0.00348508
-2.6579e-06 -0.00271296 0.00423487
-1.32895e-06 -0.00214752 0.00430981
-0.000152693 -0.00324868 0.00381236
-0.000316242 -0.00435882 0.00306384
-0.000432543 -0.00471657 0.00220898
-0.000504501 -0.00488899 0.00188267
-0.000552325 -0.00496974 0.00182371
-0.000590902 -0.00500419 0.00181745
-0.000626494 -0.00501845 0.00177181
-0.000659365 -0.00502489 0.00166112
-0.000686024 -0.00502738 0.00148265
-0.000700756 -0.00502517 0.00123989
-0.000696708 -0.00501466 0.000939626
-0.000666624 -0.00499012 0.000593486
-0.000603807 -0.00494439 0.000220751
-0.000504233 -0.00486962 -0.000149812
-0.000368886 -0.00475844 -0.000476835
-0.000206532 -0.00460624 -0.000693024
-3.87404e-05 -0.00441429 -0.000665543
9.24174e-05 -0.00419114 -0.000135144
0.00012154 -0.00391215 0.00122478
6.077e-05 -0.00304324 0.00288914
-0.000252065 -0.00427064 0.00150688
-0.000497955 -0.00584322 -0.00140716
-0.00065815 -0.00634809 -0.00304692
-0.000747474 -0.00658408 -0.00361458
-0.000798709 -0.00669319 -0.00373371
-0.000834141 -0.00673952 -0.00374876
-0.000863585 -0.00675843 -0.00379236
-0.000888432 -0.00676646 -0.00390173
-0.00090525 -0.00676891 -0.00408256
-0.00090763 -0.00676513 -0.0043326
-0.000887238 -0.00675088 -0.00464557
-0.000835024 -0.00671892 -0.00500923
-0.000742376 -0.00665989 -0.00540291
-0.000603245 -0.00656323 -0.00579448
-0.000417413 -0.00641877 -0.00613581
-0.000194379 -0.00621933 -0.00634528
4.00034e-05 -0.005965 -0.00624958
0.000230688 -0.00566346 -0.00546244
0.000278694 -0.00526719 -0.00329459
0.000139347 -0.00402123 0.000570514
-0.000372784 -0.00527611 -0.00194839
-0.000717764 -0.00737651 -0.00779529
-0.000929947 -0.00805402 -0.0104782
-0.00103918 -0.00836245 -0.0113726
-0.00109366 -0.00850325 -0.0115801
-0.00112459 -0.00856287 -0.0116129
-0.00114599 -0.00858728 -0.0116563
-0.00116066 -0.00859761 -0.0117625
-0.00116535 -0.00860092 -0.0119409
-0.00115307 -0.00859673 -0.012191
-0.0011139 -0.00858008 -0.0125073
-0.00103658 -0.00854241 -0.0128772
-0.000909999 -0.00847207 -0.0132787
-0.000725532 -0.00835522 -0.0136761
-0.000480928 -0.00817784 -0.0140144
-0.000185763 -0.00792908 -0.0141954
0.000129425 -0.0076062 -0.0139964
0.000393942 -0.00721393 -0.0128713
0.000467103 -0.00667385 -0.00965718
0.000233552 -0.00498778 -0.00285955
-0.000511785 -0.00611621 -0.00673104
-0.00097003 -0.00877539 -0.0163789
-0.00124073 -0.00964342 -0.0204004
-0.00137174 -0.0100289 -0.0217213
-0.00142914 -0.0102023 -0.0220509
-0.00145438 -0.0102755 -0.0221129
-0.00146622 -0.0103058 -0.0221588
-0.00146928 -0.0103192 -0.0222602
-0.00146054 -0.0103247 -0.0224314
-0.00143242 -0.010322 -0.0226734
-0.00137362 -0.0103058 -0.0229818
-0.00127047 -0.0102663 -0.0233444
-0.00110861 -0.0101897 -0.0237374
-0.000875872 -0.0100585 -0.0241219
-0.000566892 -0.00985391 -0.0244354
-0.000190065 -0.00955947 -0.0245613
0.000219446 -0.00916748 -0.0242171
0.000572921 -0.00867593 -0.0226597
0.000679508 -0.00796784 -0.0181279
0.000339754 -0.0058024 -0.00757315
-0.000661157 -0.00659086 -0.01292
-0.00124047 -0.00978384 -0.027276
-0.00157252 -0.0108456 -0.0329509
-0.00172552 -0.0113052 -0.0348058
-0.00178526 -0.0115078 -0.035294
-0.00180411 -0.0115929 -0.0353977
-0.0018057 -0.0116288 -0.0354498
-0.00179684 -0.011646 -0.035545
-0.00177492 -0.0116551 -0.0357047
-0.00173188 -0.0116566 -0.0359311
-0.00165535 -0.0116451 -0.0362204
-0.00152918 -0.0116102 -0.0365612
-0.00133531 -0.0115362 -0.0369286
-0.00105681 -0.0114021 -0.0372803
-0.000683377 -0.0111833 -0.0375465
-0.000220515 -0.010856 -0.0375893
0.000293468 -0.0104039 -0.0370557
0.000749786 -0.00981313 -0.034964
0.000899696 -0.00892071 -0.0288251
0.000449848 -0.00627708 -0.0136498
-0.000806553 -0.00645877 -0.0204293
-0.00150296 -0.0100805 -0.0403389
-0.00189262 -0.011316 -0.0479677
-0.002065 -0.0118349 -0.0504599
-0.00212598 -0.0120574 -0.0511411
-0.00213839 -0.0121496 -0.0512985
-0.00213045 -0.0121895 -0.0513604
-0.00211097 -0.0122106 -0.0514489
-0.00207824 -0.0122249 -0.0515934
-0.00202417 -0.0122336 -0.0517981
-0.00193558 -0.0122321 -0.0520596
-0.00179427 -0.0122102 -0.0523667
-0.00157819 -0.0121514 -0.0526943
-0.00126463 -0.0120319 -0.0529976
-0.000836276 -0.0118213 -0.0531991
-0.000292492 -0.0114865 -0.0531372
0.000327748 -0.0109982 -0.0523754
0.000895657 -0.0103233 -0.0496517
0.00109982 -0.00924555 -0.0416243
0.00054991 -0.00618395 -0.0210141
-0.000925697 -0.00546525 -0.0289429
-0.00171665 -0.00930679 -0.0550468
-0.00214963 -0.0106626 -0.0648662
-0.00233433 -0.0112102 -0.0680757
-0.00239442 -0.0114356 -0.0689734
-0.00240128 -0.0115267 -0.0691915
-0.00238635 -0.0115672 -0.0692661
-0.00235989 -0.0115916 -0.0693485
-0.00232136 -0.011612 -0.069476
-0.00226341 -0.0116306 -0.0696556
-0.0021728 -0.0116443 -0.0698847
-0.00203012 -0.0116447 -0.0701524
-0.00180988 -0.011616 -0.0704342
-0.00148306 -0.0115338 -0.0706841
-0.00102319 -0.0113633 -0.0708178
-0.000419492 -0.011061 -0.0706471
0.000293568 -0.0105806 -0.0696387
0.00097099 -0.00985961 -0.0662089
0.00123983 -0.00862072 -0.0560613
0.000619916 -0.00528 -0.0293764
-0.000987112 -0.00339445 -0.037876
-0.00182329 -0.00712514 -0.0704306
-0.00227065 -0.00850412 -0.0825427
-0.00245471 -0.00902999 -0.0864984
-0.00251037 -0.00923292 -0.0876157
-0.00251323 -0.00931165 -0.0878918
-0.0024956 -0.00934814 -0.0879781
-0.00246823 -0.00937403 -0.0880553
-0.0024317 -0.00940033 -0.0881669
-0.00238012 -0.00943025 -0.0883223
-0.00230161 -0.00946284 -0.0885204
-0.00217699 -0.00949292 -0.088752
-0.00197905 -0.00950859 -0.0889949
-0.00167339 -0.00948784 -0.0892045
-0.00122311 -0.00939502 -0.0892919
-0.00060309 -0.00917904 -0.0890398
0.000165022 -0.00877343 -0.0878061
0.000930417 -0.00807535 -0.0836505
0.00126978 -0.00673955 -0.0712616
0.000634892 -0.00335567 -0.0381962
-0.000949405 -0.00015061 -0.0463824
-0.00174624 -0.00331231 -0.0850377
-0.00216025 -0.004565 -0.0993022
-0.0023235 -0.00499782 -0.103937
-0.00236974 -0.00514558 -0.105241
-0.00237081 -0.00519852 -0.105559
-0.00235622 -0.00522542 -0.105651
-0.00233575 -0.00525006 -0.105723
-0.00231093 -0.00528059 -0.105821
-0.002278 -0.00532061 -0.105958
-0.00222794 -0.00537217 -0.106134
-0.00214433 -0.00543487 -0.106343
-0.00200127 -0.00550326 -0.106569
-0.00176202 -0.00556268 -0.106773
-0.00138104 -0.00558318 -0.106867
-0.000815803 -0.00551258 -0.106606
-6.51939e-05 -0.00526766 -0.105232
0.000733372 -0.00469831 -0.100434
0.00113578 -0.00338721 -0.085896
0.000567892 -0.000307407 -0.0466843
-0.000761005 0.0041381 -0.0533328
-0.00139164 0.00211533 -0.0967314
-0.00170399 0.00118976 -0.11255
-0.00181891 0.000935951 -0.117614
-0.00184938 0.000877936 -0.119006
-0.00185148 0.000863564 -0.119331
-0.00184668 0.000851371 -0.119415
-0.00184195 0.000831293 -0.119479
-0.0018392 0.00079992 -0.11957
-0.0018374 0.000753847 -0.119698
-0.00183169 0.000688124 -0.119866
-0.00181114 0.000597589 -0.120076
-0.00175567 0.000478957 -0.120322
-0.00163236 0.000334939 -0.120576
-0.00139304 0.000181517 -0.120759
-0.000980576 5.95631e-05 -0.120612
-0.000363394 5.55598e-05 -0.119274
0.000362229 0.00036037 -0.114111
0.00078977 0.00145585 -0.0979451
0.000394885 0.00376868 -0.0537653
-0.000366207 0.0089889 -0.0570511
-0.000664016 0.00873127 -0.101776
-0.000791112 0.00836959 -0.117523
-0.000826161 0.00837959 -0.122358
-0.000833738 0.00843799 -0.123605
-0.000839936 0.00847 -0.123862
-0.000852101 0.00847588 -0.123919
-0.000872337 0.00846366 -0.123971
-0.000901967 0.0084363 -0.124058
-0.000942389 0.00839113 -0.124186
-0.000993578 0.00832114 -0.124361
-0.00105228 0.00821626 -0.124594
-0.00110889 0.00806444 -0.124892
-0.00114241 0.007854 -0.125251
-0.0011141 0.00757995 -0.125616
-0.000965119 0.00725648 -0.125744
-0.00063689 0.00694754 -0.124764
-0.000155278 0.00685221 -0.119931
0.000205213 0.00747284 -0.103692
0.000102606 0.0084561 -0.0577785
0.000289189 0.0134106 -0.0536201
0.000507213 0.0154546 -0.091398
0.000641088 0.0158637 -0.103384
0.000705933 0.0161839 -0.106632
0.000719675 0.0163621 -0.107302
0.000699708 0.0164382 -0.10737
0.000657472 0.0164622 -0.107368
0.000598043 0.0164607 -0.107403
0.000521799 0.0164427 -0.107486
0.000426285 0.0164067 -0.107617
0.0003076 0.0163455 -0.107806
0.000161219 0.0162461 -0.108069
-1.63399e-05 0.0160907 -0.10843
-0.000223276 0.0158559 -0.108912
-0.000445627 0.0155149 -0.109508
-0.000648015 0.0150453 -0.110069
-0.00077136 0.0144591 -0.109924
-0.000763924 0.0139006 -0.106813
-0.000646213 0.0137796 -0.0941728
-0.000323106 0.0128495 -0.0547273
0.00119779 0.0157571 -0.0302341
0.00205387 0.0202011 -0.0419461
0.00246317 0.0214004 -0.0436101
0.00260485 0.0219785 -0.0433512
0.00260851 0.0222396 -0.0429468
0.00254205 0.0223441 -0.0427091
0.00243705 0.0223821 -0.0426228
0.00230696 0.0223926 -0.0426331
0.00215585 0.0223876 -0.0427064
0.00198271 0.0223675 -0.0428336
0.00178237 0.0223258 -0.0430215
0.00154542 0.0222507 -0.0432902
0.00125758 0.0221237 -0.0436733
0.000899887 0.0219179 -0.0442188
0.000450954 0.0215944 -0.0449845
-0.000106217 0.0211019 -0.0459969
-0.000765522 0.020392 -0.0471131
-0.001447 0.0194918 -0.0476451
-0.00181728 0.0185363 -0.0452741
-0.00090864 0.0153328 -0.0316128
0.0021101 0.0138208 0.0593479
0.00346426 0.0192734 0.110046
0.00398616 0.0207071 0.125037
0.00407297 0.0212933 0.129406
0.00396616 0.0215394 0.130776
0.00377472 0.0216378 0.131228
0.00354512 0.0216778 0.131365
0.00329729 0.0216947 0.131376
0.00303927 0.0216998 0.131323
0.00277262 0.0216941 0.131223
0.00249351 0.0216736 0.131072
0.00219179 0.0216304 0.130855
0.00184868 0.0215513 0.130543
0.00143269 0.0214157 0.130084
0.00089317 0.021191 0.129384
0.000153769 0.0208273 0.128257
-0.000878848 0.0202583 0.126217
-0.00220383 0.0194302 0.121516
-0.00319528 0.0181684 0.107034
-0.00159764 0.0135749 0.0579907
0.00185753 0.00691042 0.387406
0.00289272 0.0096367 0.526516
0.00309466 0.0103536 0.550714
0.0029332 0.0106466 0.555372
0.00266068 0.0107697 0.556452
0.00237074 0.0108189 0.556746
0.00209353 0.0108389 0.556826
0.00183743 0.0108474 0.556831
0.00160328 0.0108499 0.556799
0.00138855 0.010847 0.556742
0.00118801 0.0108368 0.556658
0.000992738 0.0108152 0.55654
0.000787738 0.0107756 0.556376
0.000547092 0.0107079 0.55614
0.000224636 0.0105955 0.555772
-0.000261238 0.0104136 0.555121
-0.00103535 0.0101292 0.553657
-0.00215836 0.00971511 0.54876
-0.00302625 0.0090842 0.524744
-0.00151313 0.00678746 0.386378
3.59304e-05 -3.20732e-05 0.00421113
6.59566e-05 -2.50055e-05 0.00584552
7.11005e-05 -2.4357e-05 0.00621025
6.07132e-05 -2.64356e-05 0.00631291
4.06625e-05 -2.81005e-05 0.0063511
1.3903e-05 -2.94189e-05 0.00635576
-1.74346e-05 -3.1003e-05 0.00633099
-5.11988e-05 -3.31933e-05 0.0062793
-8.51125e-05 -3.59894e-05 0.00620326
-0.000116706 -3.92348e-05 0.00610554
-0.00014348 -4.26295e-05 0.00598952
-0.000163106 -4.57165e-05 0.0058601
-0.000173771 -4.7943e-05 0.00572442
-0.000174805 -4.85731e-05 0.00559195
-0.000167469 -4.69445e-05 0.00547429
-0.000155302 -4.25825e-05 0.00538478
-0.000143993 -3.5624e-05 0.00533537
-0.000139044 -2.72217e-05 0.0053094
-0.000136574 -1.91194e-05 0.00511965
-6.82868e-05 -5.76279e-06 0.00379308
5.43154e-05 -0.000168322 0.00600051
8.85773e-05 -0.000196113 0.0086825
9.27182e-05 -0.000207385 0.00924108
7.91704e-05 -0.000216356 0.0093658
5.37212e-05 -0.000221244 0.00940792
1.88133e-05 -0.000224091 0.0094092
-2.35595e-05 -0.000227064 0.00936663
-7.09094e-05 -0.000231237 0.00928003
-0.000120366 -0.000236818 0.00915245
-0.000168593 -0.000243432 0.00898816
-0.000211923 -0.00025035 0.00879275
-0.00024668 -0.000256498 0.00857432
-0.000269525 -0.000260349 0.00834454
-0.000278461 -0.000260183 0.00811932
-0.000273855 -0.000254265 0.00791906
-0.000259419 -0.000241326 0.00777034
-0.000242591 -0.000221535 0.007704
-0.00023178 -0.000197564 0.00770751
-0.000219936 -0.00017351 0.00746259
-0.000109968 -0.000129709 0.00535778
4.83947e-05 -0.000471147 0.00650099
7.29368e-05 -0.000584496 0.00912551
6.95569e-05 -0.000622495 0.00956905
5.12203e-05 -0.000644368 0.00964231
2.21198e-05 -0.000654698 0.00967399
-1.65981e-05 -0.000659534 0.00967582
-6.35085e-05 -0.000663605 0.00962978
-0.000116221 -0.000669152 0.0095309
-0.000171558 -0.00067672 0.00938141
-0.000225695 -0.000685825 0.00918572
-0.000274263 -0.000695244 0.00894999
-0.00031253 -0.000703076 0.00868352
-0.000336117 -0.000706762 0.00840016
-0.000341932 -0.000703286 0.00811931
-0.000329545 -0.000689536 0.00786738
-0.000302791 -0.000663326 0.00768199
-0.000270824 -0.000624766 0.00761653
-0.000245837 -0.000578186 0.00769866
-0.00022535 -0.000529125 0.00764752
-0.000112675 -0.000419981 0.00574468
2.66644e-05 -0.000974943 0.00653269
3.05053e-05 -0.00123898 0.00859478
1.45712e-05 -0.00132157 0.00876767
-1.00806e-05 -0.00136376 0.00875579
-4.25808e-05 -0.00138261 0.00877362
-8.39702e-05 -0.00139043 0.00877896
-0.000133716 -0.00139556 0.00873446
-0.000189603 -0.00140194 0.00862979
-0.000248235 -0.00141066 0.00846613
-0.000305228 -0.00142114 0.0082476
-0.000355328 -0.00143163 0.0079804
-0.00039273 -0.00143936 0.00767434
-0.000411773 -0.00144053 0.00734495
-0.000408061 -0.00143054 0.00701491
-0.000380385 -0.00140465 0.00671632
-0.000332785 -0.00135944 0.00649783
-0.000276623 -0.00129498 0.00643862
-0.000229578 -0.00121728 0.00662832
-0.000199207 -0.00113091 0.00691123
-9.96035e-05 -0.000904187 0.00568316
-1.02485e-05 -0.00170648 0.00608721
-3.87708e-05 -0.00220375 0.00716388
-7.28625e-05 -0.00235353 0.00692959
-0.000105585 -0.00242538 0.00679742
-0.000141304 -0.00245687 0.00679453
-0.000184226 -0.00246923 0.00680329
-0.000235227 -0.00247573 0.00676209
-0.000292459 -0.00248257 0.00665423
-0.000352301 -0.00249166 0.00647937
-0.000409743 -0.00250237 0.00624121
-0.000458587 -0.00251241 0.00594571
-0.000491745 -0.00251801 0.00560301
-0.000501955 -0.00251389 0.00523031
-0.000483254 -0.00249363 0.00485366
-0.000433415 -0.00245053 0.00451103
-0.000356808 -0.00237961 0.00426322
-0.000267534 -0.00228062 0.0042193
-0.000190686 -0.00216119 0.00455087
-0.000148384 -0.0020204 0.00529845
-7.41918e-05 -0.00160707 0.00515655
-6.498e-05 -0.0026763 0.00495652
-0.000139904 -0.00350577 0.00452488
-0.000199146 -0.00375045 0.00371237
-0.000242301 -0.00386313 0.00340922
-0.000281144 -0.00391218 0.00337156
-0.000324352 -0.00393113 0.00338056
-0.000374741 -0.00393958 0.00334328
-0.000431089 -0.00394674 0.00323466
-0.000489613 -0.00395549 0.0030523
-0.000544668 -0.00396526 0.002799
-0.000588991 -0.00397326 0.00248019
-0.00061394 -0.00397459 0.00210621
-0.000610414 -0.00396227 0.00169559
-0.000570493 -0.00392778 0.00127786
-0.00049063 -0.00386197 0.00089758
-0.000375442 -0.00375784 0.000629017
-0.00024245 -0.00361451 0.000617734
-0.000126126 -0.00344062 0.00114038
-6.90915e-05 -0.00322362 0.00251523
-3.45458e-05 -0.00253917 0.00396414
-0.000140825 -0.00386585 0.00288336
-0.000278685 -0.00513725 0.000281838
-0.000371323 -0.00550839 -0.00132861
-0.0004277 -0.00567417 -0.00187273
-0.000469662 -0.00574621 -0.00196694
-0.000511688 -0.00577411 -0.00196389
-0.000559319 -0.00578542 -0.0019978
-0.000612134 -0.00579294 -0.00210488
-0.000666308 -0.00580082 -0.00229041
-0.000715637 -0.00580872 -0.00255291
-0.000751611 -0.00581332 -0.00288775
-0.000763859 -0.00580856 -0.00328451
-0.000741134 -0.00578566 -0.00372362
-0.000673072 -0.00573347 -0.00417222
-0.000554347 -0.00563996 -0.00457871
-0.000389581 -0.00549532 -0.00485294
-0.000200338 -0.00529737 -0.00480523
-3.29959e-05 -0.00505472 -0.00402394
4.25678e-05 -0.0047351 -0.00181542
2.12839e-05 -0.00368337 0.00185942
-0.000239629 -0.00521315 -0.00039372
-0.000458514 -0.0070371 -0.00596827
-0.000593569 -0.0075683 -0.00864612
-0.000666282 -0.00779947 -0.00952008
-0.000711393 -0.00789969 -0.0097001
-0.000750802 -0.00793886 -0.00971242
-0.000793378 -0.00795406 -0.00974487
-0.00083984 -0.00796223 -0.00984837
-0.000886522 -0.00796915 -0.010032
-0.000926661 -0.00797478 -0.0102959
-0.000950487 -0.00797532 -0.0106368
-0.000945699 -0.00796364 -0.0110443
-0.000898382 -0.00792901 -0.011498
-0.000795273 -0.00785734 -0.0119617
-0.000628483 -0.00773291 -0.0123766
-0.000402148 -0.00754213 -0.0126344
-0.000142397 -0.00728027 -0.0124918
8.96629e-05 -0.00695396 -0.0113671
0.000188824 -0.00650116 -0.00807536
9.44119e-05 -0.00498179 -0.00140939
-0.000361335 -0.00659831 -0.00510449
-0.0006792 -0.00907074 -0.0145713
-0.000865385 -0.00979334 -0.0186281
-0.000957323 -0.0101 -0.0199373
-0.00100553 -0.0102321 -0.0202391
-0.00104087 -0.0102843 -0.020279
-0.00107614 -0.0103043 -0.020313
-0.0011136 -0.0103137 -0.0204112
-0.00114986 -0.01032 -0.0205876
-0.00117768 -0.0103237 -0.0208441
-0.00118616 -0.0103207 -0.0211786
-0.0011609 -0.0103029 -0.0215817
-0.00108489 -0.0102577 -0.0220318