# vtk DataFile Version 2.0 
Visualization 
ASCII 
DATASET STRUCTURED_GRID 
DIMENSIONS 21 21 11
POINTS 4851 float
-0.1 -0.1 -0.1
0 -0.1 -0.1
0.1 -0.1 -0.1
0.2 -0.1 -0.1
0.3 -0.1 -0.1
0.4 -0.1 -0.1
0.5 -0.1 -0.1
0.6 -0.1 -0.1
0.7 -0.1 -0.1
0.8 -0.1 -0.1
0.9 -0.1 -0.1
1 -0.1 -0.1
1.1 -0.1 -0.1
1.2 -0.1 -0.1
1.3 -0.1 -0.1
1.4 -0.1 -0.1
1.5 -0.1 -0.1
1.6 -0.1 -0.1
1.7 -0.1 -0.1
1.8 -0.1 -0.1
1.9 -0.1 -0.1
-0.1 0 -0.1
0 0 -0.1
0.1 0 -0.1
0.2 0 -0.1
0.3 0 -0.1
0.4 0 -0.1
0.5 0 -0.1
0.6 0 -0.1
0.7 0 -0.1
0.8 0 -0.1
0.9 0 -0.1
1 0 -0.1
1.1 0 -0.1
1.2 0 -0.1
1.3 0 -0.1
1.4 0 -0.1
1.5 0 -0.1
1.6 0 -0.1
1.7 0 -0.1
1.8 0 -0.1
1.9 0 -0.1
-0.1 0.1 -0.1
0 0.1 -0.1
0.1 0.1 -0.1
0.2 0.1 -0.1
0.3 0.1 -0.1
0.4 0.1 -0.1
0.5 0.1 -0.1
0.6 0.1 -0.1
0.7 0.1 -0.1
0.8 0.1 -0.1
0.9 0.1 -0.1
1 0.1 -0.1
1.1 0.1 -0.1
1.2 0.1 -0.1
1.3 0.1 -0.1
1.4 0.1 -0.1
1.5 0.1 -0.1
1.6 0.1 -0.1
1.7 0.1 -0.1
1.8 0.1 -0.1
1.9 0.1 -0.1
-0.1 0.2 -0.1
0 0.2 -0.1
0.1 0.2 -0.1
0.2 0.2 -0.1
0.3 0.2 -0.1
0.4 0.2 -0.1
0.5 0.2 -0.1
0.6 0.2 -0.1
0.7 0.2 -0.1
0.8 0.2 -0.1
0.9 0.2 -0.1
1 0.2 -0.1
1.1 0.2 -0.1
1.2 0.2 -0.1
1.3 0.2 -0.1
1.4 0.2 -0.1
1.5 0.2 -0.1
1.6 0.2 -0.1
1.7 0.2 -0.1
1.8 0.2 -0.1
1.9 0.2 -0.1
-0.1 0.3 -0.1
0 0.3 -0.1
0.1 0.3 -0.1
0.2 0.3 -0.1
0.3 0.3 -0.1
0.4 0.3 -0.1
0.5 0.3 -0.1
0.6 0.3 -0.1
0.7 0.3 -0.1
0.8 0.3 -0.1
0.9 0.3 -0.1
1 0.3 -0.1
1.1 0.3 -0.1
1.2 0.3 -0.1
1.3 0.3 -0.1
1.4 0.3 -0.1
1.5 0.3 -0.1
1.6 0.3 -0.1
1.7 0.3 -0.1
1.8 0.3 -0.1
1.9 0.3 -0.1
-0.1 0.4 -0.1
0 0.4 -0.1
0.1 0.4 -0.1
0.2 0.4 -0.1
0.3 0.4 -0.1
0.4 0.4 -0.1
0.5 0.4 -0.1
0.6 0.4 -0.1
0.7 0.4 -0.1
0.8 0.4 -0.1
0.9 0.4 -0.1
1 0.4 -0.1
1.1 0.4 -0.1
1.2 0.4 -0.1
1.3 0.4 -0.1
1.4 0.4 -0.1
1.5 0.4 -0.1
1.6 0.4 -0.1
1.7 0.4 -0.1
1.8 0.4 -0.1
1.9 0.4 -0.1
-0.1 0.5 -0.1
0 0.5 -0.1
0.1 0.5 -0.1
0.2 0.5 -0.1
0.3 0.5 -0.1
0.4 0.5 -0.1
0.5 0.5 -0.1
0.6 0.5 -0.1
0.7 0.5 -0.1
0.8 0.5 -0.1
0.9 0.5 -0.1
1 0.5 -0.1
1.1 0.5 -0.1
1.2 0.5 -0.1
1.3 0.5 -0.1
1.4 0.5 -0.1
1.5 0.5 -0.1
1.6 0.5 -0.1
1.7 0.5 -0.1
1.8 0.5 -0.1
1.9 0.5 -0.1
-0.1 0.6 -0.1
0 0.6 -0.1
0.1 0.6 -0.1
0.2 0.6 -0.1
0.3 0.6 -0.1
0.4 0.6 -0.1
0.5 0.6 -0.1
0.6 0.6 -0.1
0.7 0.6 -0.1
0.8 0.6 -0.1
0.9 0.6 -0.1
1 0.6 -0.1
1.1 0.6 -0.1
1.2 0.6 -0.1
1.3 0.6 -0.1
1.4 0.6 -0.1
1.5 0.6 -0.1
1.6 0.6 -0.1
1.7 0.6 -0.1
1.8 0.6 -0.1
1.9 0.6 -0.1
-0.1 0.7 -0.1
0 0.7 -0.1
0.1 0.7 -0.1
0.2 0.7 -0.1
0.3 0.7 -0.1
0.4 0.7 -0.1
0.5 0.7 -0.1
0.6 0.7 -0.1
0.7 0.7 -0.1
0.8 0.7 -0.1
0.9 0.7 -0.1
1 0.7 -0.1
1.1 0.7 -0.1
1.2 0.7 -0.1
1.3 0.7 -0.1
1.4 0.7 -0.1
1.5 0.7 -0.1
1.6 0.7 -0.1
1.7 0.7 -0.1
1.8 0.7 -0.1
1.9 0.7 -0.1
-0.1 0.8 -0.1
0 0.8 -0.1
0.1 0.8 -0.1
0.2 0.8 -0.1
0.3 0.8 -0.1
0.4 0.8 -0.1
0.5 0.8 -0.1
0.6 0.8 -0.1
0.7 0.8 -0.1
0.8 0.8 -0.1
0.9 0.8 -0.1
1 0.8 -0.1
1.1 0.8 -0.1
1.2 0.8 -0.1
1.3 0.8 -0.1
1.4 0.8 -0.1
1.5 0.8 -0.1
1.6 0.8 -0.1
1.7 0.8 -0.1
1.8 0.8 -0.1
1.9 0.8 -0.1
-0.1 0.9 -0.1
0 0.9 -0.1
0.1 0.9 -0.1
0.2 0.9 -0.1
0.3 0.9 -0.1
0.4 0.9 -0.1
0.5 0.9 -0.1
0.6 0.9 -0.1
0.7 0.9 -0.1
0.8 0.9 -0.1
0.9 0.9 -0.1
1 0.9 -0.1
1.1 0.9 -0.1
1.2 0.9 -0.1
1.3 0.9 -0.1
1.4 0.9 -0.1
1.5 0.9 -0.1
1.6 0.9 -0.1
1.7 0.9 -0.1
1.8 0.9 -0.1
1.9 0.9 -0.1
-0.1 1 -0.1
0 1 -0.1
0.1 1 -0.1
0.2 1 -0.1
0.3 1 -0.1
0.4 1 -0.1
0.5 1 -0.1
0.6 1 -0.1
0.7 1 -0.1
0.8 1 -0.1
0.9 1 -0.1
1 1 -0.1
1.1 1 -0.1
1.2 1 -0.1
1.3 1 -0.1
1.4 1 -0.1
1.5 1 -0.1
1.6 1 -0.1
1.7 1 -0.1
1.8 1 -0.1
1.9 1 -0.1
-0.1 1.1 -0.1
0 1.1 -0.1
0.1 1.1 -0.1
0.2 1.1 -0.1
0.3 1.1 -0.1
0.4 1.1 -0.1
0.5 1.1 -0.1
0.6 1.1 -0.1
0.7 1.1 -0.1
0.8 1.1 -0.1
0.9 1.1 -0.1
1 1.1 -0.1
1.1 1.1 -0.1
1.2 1.1 -0.1
1.3 1.1 -0.1
1.4 1.1 -0.1
1.5 1.1 -0.1
1.6 1.1 -0.1
1.7 1.1 -0.1
1.8 1.1 -0.1
1.9 1.1 -0.1
-0.1 1.2 -0.1
0 1.2 -0.1
0.1 1.2 -0.1
0.2 1.2 -0.1
0.3 1.2 -0.1
0.4 1.2 -0.1
0.5 1.2 -0.1
0.6 1.2 -0.1
0.7 1.2 -0.1
0.8 1.2 -0.1
0.9 1.2 -0.1
1 1.2 -0.1
1.1 1.2 -0.1
1.2 1.2 -0.1
1.3 1.2 -0.1
1.4 1.2 -0.1
1.5 1.2 -0.1
1.6 1.2 -0.1
1.7 1.2 -0.1
1.8 1.2 -0.1
1.9 1.2 -0.1
-0.1 1.3 -0.1
0 1.3 -0.1
0.1 1.3 -0.1
0.2 1.3 -0.1
0.3 1.3 -0.1
0.4 1.3 -0.1
0.5 1.3 -0.1
0.6 1.3 -0.1
0.7 1.3 -0.1
0.8 1.3 -0.1
0.9 1.3 -0.1
1 1.3 -0.1
1.1 1.3 -0.1
1.2 1.3 -0.1
1.3 1.3 -0.1
1.4 1.3 -0.1
1.5 1.3 -0.1
1.6 1.3 -0.1
1.7 1.3 -0.1
1.8 1.3 -0.1
1.9 1.3 -0.1
-0.1 1.4 -0.1
0 1.4 -0.1
0.1 1.4 -0.1
0.2 1.4 -0.1
0.3 1.4 -0.1
0.4 1.4 -0.1
0.5 1.4 -0.1
0.6 1.4 -0.1
0.7 1.4 -0.1
0.8 1.4 -0.1
0.9 1.4 -0.1
1 1.4 -0.1
1.1 1.4 -0.1
1.2 1.4 -0.1
1.3 1.4 -0.1
1.4 1.4 -0.1
1.5 1.4 -0.1
1.6 1.4 -0.1
1.7 1.4 -0.1
1.8 1.4 -0.1
1.9 1.4 -0.1
-0.1 1.5 -0.1
0 1.5 -0.1
0.1 1.5 -0.1
0.2 1.5 -0.1
0.3 1.5 -0.1
0.4 1.5 -0.1
0.5 1.5 -0.1
0.6 1.5 -0.1
0.7 1.5 -0.1
0.8 1.5 -0.1
0.9 1.5 -0.1
1 1.5 -0.1
1.1 1.5 -0.1
1.2 1.5 -0.1
1.3 1.5 -0.1
1.4 1.5 -0.1
1.5 1.5 -0.1
1.6 1.5 -0.1
1.7 1.5 -0.1
1.8 1.5 -0.1
1.9 1.5 -0.1
-0.1 1.6 -0.1
0 1.6 -0.1
0.1 1.6 -0.1
0.2 1.6 -0.1
0.3 1.6 -0.1
0.4 1.6 -0.1
0.5 1.6 -0.1
0.6 1.6 -0.1
0.7 1.6 -0.1
0.8 1.6 -0.1
0.9 1.6 -0.1
1 1.6 -0.1
1.1 1.6 -0.1
1.2 1.6 -0.1
1.3 1.6 -0.1
1.4 1.6 -0.1
1.5 1.6 -0.1
1.6 1.6 -0.1
1.7 1.6 -0.1
1.8 1.6 -0.1
1.9 1.6 -0.1
-0.1 1.7 -0.1
0 1.7 -0.1
0.1 1.7 -0.1
0.2 1.7 -0.1
0.3 1.7 -0.1
0.4 1.7 -0.1
0.5 1.7 -0.1
0.6 1.7 -0.1
0.7 1.7 -0.1
0.8 1.7 -0.1
0.9 1.7 -0.1
1 1.7 -0.1
1.1 1.7 -0.1
1.2 1.7 -0.1
1.3 1.7 -0.1
1.4 1.7 -0.1
1.5 1.7 -0.1
1.6 1.7 -0.1
1.7 1.7 -0.1
1.8 1.7 -0.1
1.9 1.7 -0.1
-0.1 1.8 -0.1
0 1.8 -0.1
0.1 1.8 -0.1
0.2 1.8 -0.1
0.3 1.8 -0.1
0.4 1.8 -0.1
0.5 1.8 -0.1
0.6 1.8 -0.1
0.7 1.8 -0.1
0.8 1.8 -0.1
0.9 1.8 -0.1
1 1.8 -0.1
1.1 1.8 -0.1
1.2 1.8 -0.1
1.3 1.8 -0.1
1.4 1.8 -0.1
1.5 1.8 -0.1
1.6 1.8 -0.1
1.7 1.8 -0.1
1.8 1.8 -0.1
1.9 1.8 -0.1
-0.1 1.9 -0.1
0 1.9 -0.1
0.1 1.9 -0.1
0.2 1.9 -0.1
0.3 1.9 -0.1
0.4 1.9 -0.1
0.5 1.9 -0.1
0.6 1.9 -0.1
0.7 1.9 -0.1
0.8 1.9 -0.1
0.9 1.9 -0.1
1 1.9 -0.1
1.1 1.9 -0.1
1.2 1.9 -0.1
1.3 1.9 -0.1
1.4 1.9 -0.1
1.5 1.9 -0.1
1.6 1.9 -0.1
1.7 1.9 -0.1
1.8 1.9 -0.1
1.9 1.9 -0.1
-0.1 -0.1 0
0 -0.1 0
0.1 -0.1 0
0.2 -0.1 0
0.3 -0.1 0
0.4 -0.1 0
0.5 -0.1 0
0.6 -0.1 0
0.7 -0.1 0
0.8 -0.1 0
0.9 -0.1 0
1 -0.1 0
1.1 -0.1 0
1.2 -0.1 0
1.3 -0.1 0
1.4 -0.1 0
1.5 -0.1 0
1.6 -0.1 0
1.7 -0.1 0
1.8 -0.1 0
1.9 -0.1 0
-0.1 0 0
0 0 0
0.1 0 0
0.2 0 0
0.3 0 0
0.4 0 0
0.5 0 0
0.6 0 0
0.7 0 0
0.8 0 0
0.9 0 0
1 0 0
1.1 0 0
1.2 0 0
1.3 0 0
1.4 0 0
1.5 0 0
1.6 0 0
1.7 0 0
1.8 0 0
1.9 0 0
-0.1 0.1 0
0 0.1 0
0.1 0.1 0
0.2 0.1 0
0.3 0.1 0
0.4 0.1 0
0.5 0.1 0
0.6 0.1 0
0.7 0.1 0
0.8 0.1 0
0.9 0.1 0
1 0.1 0
1.1 0.1 0
1.2 0.1 0
1.3 0.1 0
1.4 0.1 0
1.5 0.1 0
1.6 0.1 0
1.7 0.1 0
1.8 0.1 0
1.9 0.1 0
-0.1 0.2 0
0 0.2 0
0.1 0.2 0
0.2 0.2 0
0.3 0.2 0
0.4 0.2 0
0.5 0.2 0
0.6 0.2 0
0.7 0.2 0
0.8 0.2 0
0.9 0.2 0
1 0.2 0
1.1 0.2 0
1.2 0.2 0
1.3 0.2 0
1.4 0.2 0
1.5 0.2 0
1.6 0.2 0
1.7 0.2 0
1.8 0.2 0
1.9 0.2 0
-0.1 0.3 0
0 0.3 0
0.1 0.3 0
0.2 0.3 0
0.3 0.3 0
0.4 0.3 0
0.5 0.3 0
0.6 0.3 0
0.7 0.3 0
0.8 0.3 0
0.9 0.3 0
1 0.3 0
1.1 0.3 0
1.2 0.3 0
1.3 0.3 0
1.4 0.3 0
1.5 0.3 0
1.6 0.3 0
1.7 0.3 0
1.8 0.3 0
1.9 0.3 0
-0.1 0.4 0
0 0.4 0
0.1 0.4 0
0.2 0.4 0
0.3 0.4 0
0.4 0.4 0
0.5 0.4 0
0.6 0.4 0
0.7 0.4 0
0.8 0.4 0
0.9 0.4 0
1 0.4 0
1.1 0.4 0
1.2 0.4 0
1.3 0.4 0
1.4 0.4 0
1.5 0.4 0
1.6 0.4 0
1.7 0.4 0
1.8 0.4 0
1.9 0.4 0
-0.1 0.5 0
0 0.5 0
0.1 0.5 0
0.2 0.5 0
0.3 0.5 0
0.4 0.5 0
0.5 0.5 0
0.6 0.5 0
0.7 0.5 0
0.8 0.5 0
0.9 0.5 0
1 0.5 0
1.1 0.5 0
1.2 0.5 0
1.3 0.5 0
1.4 0.5 0
1.5 0.5 0
1.6 0.5 0
1.7 0.5 0
1.8 0.5 0
1.9 0.5 0
-0.1 0.6 0
0 0.6 0
0.1 0.6 0
0.2 0.6 0
0.3 0.6 0
0.4 0.6 0
0.5 0.6 0
0.6 0.6 0
0.7 0.6 0
0.8 0.6 0
0.9 0.6 0
1 0.6 0
1.1 0.6 0
1.2 0.6 0
1.3 0.6 0
1.4 0.6 0
1.5 0.6 0
1.6 0.6 0
1.7 0.6 0
1.8 0.6 0
1.9 0.6 0
-0.1 0.7 0
0 0.7 0
0.1 0.7 0
0.2 0.7 0
0.3 0.7 0
0.4 0.7 0
0.5 0.7 0
0.6 0.7 0
0.7 0.7 0
0.8 0.7 0
0.9 0.7 0
1 0.7 0
1.1 0.7 0
1.2 0.7 0
1.3 0.7 0
1.4 0.7 0
1.5 0.7 0
1.6 0.7 0
1.7 0.7 0
1.8 0.7 0
1.9 0.7 0
-0.1 0.8 0
0 0.8 0
0.1 0.8 0
0.2 0.8 0
0.3 0.8 0
0.4 0.8 0
0.5 0.8 0
0.6 0.8 0
0.7 0.8 0
0.8 0.8 0
0.9 0.8 0
1 0.8 0
1.1 0.8 0
1.2 0.8 0
1.3 0.8 0
1.4 0.8 0
1.5 0.8 0
1.6 0.8 0
1.7 0.8 0
1.8 0.8 0
1.9 0.8 0
-0.1 0.9 0
0 0.9 0
0.1 0.9 0
0.2 0.9 0
0.3 0.9 0
0.4 0.9 0
0.5 0.9 0
0.6 0.9 0
0.7 0.9 0
0.8 0.9 0
0.9 0.9 0
1 0.9 0
1.1 0.9 0
1.2 0.9 0
1.3 0.9 0
1.4 0.9 0
1.5 0.9 0
1.6 0.9 0
1.7 0.9 0
1.8 0.9 0
1.9 0.9 0
-0.1 1 0
0 1 0
0.1 1 0
0.2 1 0
0.3 1 0
0.4 1 0
0.5 1 0
0.6 1 0
0.7 1 0
0.8 1 0
0.9 1 0
1 1 0
1.1 1 0
1.2 1 0
1.3 1 0
1.4 1 0
1.5 1 0
1.6 1 0
1.7 1 0
1.8 1 0
1.9 1 0
-0.1 1.1 0
0 1.1 0
0.1 1.1 0
0.2 1.1 0
0.3 1.1 0
0.4 1.1 0
0.5 1.1 0
0.6 1.1 0
0.7 1.1 0
0.8 1.1 0
0.9 1.1 0
1 1.1 0
1.1 1.1 0
1.2 1.1 0
1.3 1.1 0
1.4 1.1 0
1.5 1.1 0
1.6 1.1 0
1.7 1.1 0
1.8 1.1 0
1.9 1.1 0
-0.1 1.2 0
0 1.2 0
0.1 1.2 0
0.2 1.2 0
0.3 1.2 0
0.4 1.2 0
0.5 1.2 0
0.6 1.2 0
0.7 1.2 0
0.8 1.2 0
0.9 1.2 0
1 1.2 0
1.1 1.2 0
1.2 1.2 0
1.3 1.2 0
1.4 1.2 0
1.5 1.2 0
1.6 1.2 0
1.7 1.2 0
1.8 1.2 0
1.9 1.2 0
-0.1 1.3 0
0 1.3 0
0.1 1.3 0
0.2 1.3 0
0.3 1.3 0
0.4 1.3 0
0.5 1.3 0
0.6 1.3 0
0.7 1.3 0
0.8 1.3 0
0.9 1.3 0
1 1.3 0
1.1 1.3 0
1.2 1.3 0
1.3 1.3 0
1.4 1.3 0
1.5 1.3 0
1.6 1.3 0
1.7 1.3 0
1.8 1.3 0
1.9 1.3 0
-0.1 1.4 0
0 1.4 0
0.1 1.4 0
0.2 1.4 0
0.3 1.4 0
0.4 1.4 0
0.5 1.4 0
0.6 1.4 0
0.7 1.4 0
0.8 1.4 0
0.9 1.4 0
1 1.4 0
1.1 1.4 0
1.2 1.4 0
1.3 1.4 0
1.4 1.4 0
1.5 1.4 0
1.6 1.4 0
1.7 1.4 0
1.8 1.4 0
1.9 1.4 0
-0.1 1.5 0
0 1.5 0
0.1 1.5 0
0.2 1.5 0
0.3 1.5 0
0.4 1.5 0
0.5 1.5 0
0.6 1.5 0
0.7 1.5 0
0.8 1.5 0
0.9 1.5 0
1 1.5 0
1.1 1.5 0
1.2 1.5 0
1.3 1.5 0
1.4 1.5 0
1.5 1.5 0
1.6 1.5 0
1.7 1.5 0
1.8 1.5 0
1.9 1.5 0
-0.1 1.6 0
0 1.6 0
0.1 1.6 0
0.2 1.6 0
0.3 1.6 0
0.4 1.6 0
0.5 1.6 0
0.6 1.6 0
0.7 1.6 0
0.8 1.6 0
0.9 1.6 0
1 1.6 0
1.1 1.6 0
1.2 1.6 0
1.3 1.6 0
1.4 1.6 0
1.5 1.6 0
1.6 1.6 0
1.7 1.6 0
1.8 1.6 0
1.9 1.6 0
-0.1 1.7 0
0 1.7 0
0.1 1.7 0
0.2 1.7 0
0.3 1.7 0
0.4 1.7 0
0.5 1.7 0
0.6 1.7 0
0.7 1.7 0
0.8 1.7 0
0.9 1.7 0
1 1.7 0
1.1 1.7 0
1.2 1.7 0
1.3 1.7 0
1.4 1.7 0
1.5 1.7 0
1.6 1.7 0
1.7 1.7 0
1.8 1.7 0
1.9 1.7 0
-0.1 1.8 0
0 1.8 0
0.1 1.8 0
0.2 1.8 0
0.3 1.8 0
0.4 1.8 0
0.5 1.8 0
0.6 1.8 0
0.7 1.8 0
0.8 1.8 0
0.9 1.8 0
1 1.8 0
1.1 1.8 0
1.2 1.8 0
1.3 1.8 0
1.4 1.8 0
1.5 1.8 0
1.6 1.8 0
1.7 1.8 0
1.8 1.8 0
1.9 1.8 0
-0.1 1.9 0
0 1.9 0
0.1 1.9 0
0.2 1.9 0
0.3 1.9 0
0.4 1.9 0
0.5 1.9 0
0.6 1.9 0
0.7 1.9 0
0.8 1.9 0
0.9 1.9 0
1 1.9 0
1.1 1.9 0
1.2 1.9 0
1.3 1.9 0
1.4 1.9 0
1.5 1.9 0
1.6 1.9 0
1.7 1.9 0
1.8 1.9 0
[...]
CELL_DATA 4000
VECTORS velocity double 
-2.85384e-05 0.000245514 -0.000216975
-3.19027e-05 0.000289884 -0.000245778
-2.84221e-05 0.000294632 -0.000254828
-1.67763e-05 0.000295081 -0.000260816
2.70654e-06 0.00029522 -0.000264751
2.81382e-05 0.000295813 -0.000267352
5.70493e-05 0.000296984 -0.000269063
8.69053e-05 0.000298713 -0.000270023
0.000115145 0.000300956 -0.000270188
0.000139179 0.000303591 -0.000269481
0.000156509 0.000306415 -0.000267835
0.000164992 0.000309246 -0.000265134
0.00016293 0.000311789 -0.000261391
0.000149253 0.00031361 -0.000256861
0.000124083 0.000314238 -0.000251867
8.89733e-05 0.000313308 -0.000246779
4.6953e-05 0.000310444 -0.000241913
2.63455e-06 0.000305315 -0.000237774
-3.77712e-05 0.000296311 -0.000233763
-1.88856e-05 0.000256754 -0.000207516
-1.74437e-05 0.00072303 -0.00028235
-2.20471e-05 0.000851106 -0.000330402
-2.18081e-05 0.000865198 -0.000344556
-1.21279e-05 0.000866762 -0.000352975
7.69123e-06 0.000866757 -0.000358187
3.5955e-05 0.000867455 -0.000361408
7.00568e-05 0.000869421 -0.000363326
0.000107112 0.000872775 -0.000364142
0.000143996 0.000877472 -0.000363862
0.00017737 0.000883286 -0.000362419
0.000203938 0.000889859 -0.000359688
0.000220578 0.000896686 -0.000355553
0.000224476 0.000902951 -0.000350116
0.000213539 0.000907654 -0.000343778
0.000187127 0.000909727 -0.000336799
0.000146218 0.000908049 -0.000329619
9.37237e-05 0.000901578 -0.000322863
3.45289e-05 0.000889102 -0.000317411
-2.22996e-05 0.000864942 -0.000312215
-1.11498e-05 0.000738668 -0.000275724
-5.31491e-06 0.00137248 -0.000360359
-6.78672e-06 0.00163558 -0.000423569
-7.60205e-06 0.00166592 -0.000442073
3.05273e-07 0.00167 -0.000452856
1.89507e-05 0.00167 -0.000459347
4.70268e-05 0.00167044 -0.000463175
8.2026e-05 0.00167264 -0.000465225
0.000120993 0.00167697 -0.000465818
0.000160601 0.00168345 -0.000465021
0.000197258 0.00169185 -0.000462749
0.000227268 0.00170164 -0.000458836
0.00024693 0.00171195 -0.000453235
0.000252808 0.00172158 -0.000446074
0.000242211 0.00172888 -0.00043767
0.000213806 0.00173205 -0.0004284
0.000168018 0.00172911 -0.000418939
0.000107324 0.00171833 -0.000410095
3.68722e-05 0.00169728 -0.000402855
-3.17158e-05 0.0016523 -0.000396524
-1.58579e-05 0.00139004 -0.000351564
9.31103e-06 0.00219219 -0.000459894
1.31801e-05 0.0026499 -0.000540178
1.19791e-05 0.00270563 -0.000563205
1.78901e-05 0.00271433 -0.000576613
3.47551e-05 0.00271489 -0.000584576
6.18958e-05 0.00271494 -0.000589129
9.69656e-05 0.00271679 -0.000591398
0.000136966 0.00272122 -0.000591828
0.000178429 0.00272841 -0.00059053
0.000217471 0.00273811 -0.000587418
0.00024993 0.00274972 -0.000582333
0.000271646 0.00276216 -0.000575189
0.000278471 0.00277381 -0.000566083
0.00026701 0.0027825 -0.000555263
0.000235156 0.0027856 -0.000543346
0.00018286 0.00278026 -0.000531195
0.000112141 0.00276402 -0.000519954
2.8776e-05 0.00273298 -0.00051071
-5.13685e-05 0.0026602 -0.00050295
-2.56843e-05 0.00220606 -0.000446817
2.75634e-05 0.0031934 -0.000574492
3.94329e-05 0.00391341 -0.00067331
3.87281e-05 0.00400603 -0.000700775
4.23974e-05 0.00402217 -0.000716876
5.66659e-05 0.00402417 -0.000726441
8.18046e-05 0.00402381 -0.000731829
0.000115798 0.00402475 -0.000734402
0.000155699 0.00402831 -0.00073476
0.000197886 0.00403487 -0.000733083
0.000238243 0.00404425 -0.000729243
0.000272253 0.0040559 -0.00072309
0.000295199 0.00406863 -0.00071438
0.000302247 0.00408049 -0.000703223
0.000289132 0.00408874 -0.000689976
0.00025285 0.0040901 -0.000675402
0.000192902 0.00408109 -0.000660236
0.000111024 0.00405809 -0.000646155
1.38016e-05 0.00401507 -0.000634832
-7.74058e-05 0.00390542 -0.000625785
-3.87029e-05 0.00319618 -0.000556594
5.02167e-05 0.00438633 -0.000698109
7.34019e-05 0.00544402 -0.000815772
7.44564e-05 0.00558721 -0.000847205
7.5756e-05 0.00561417 -0.000865895
8.65139e-05 0.0056187 -0.000877135
0.000108356 0.00561809 -0.00088345
0.000139779 0.00561771 -0.000886431
0.000177947 0.00561949 -0.00088686
0.000219205 0.00562407 -0.000884994
0.000259317 0.00563153 -0.000880637
0.000293471 0.0056414 -0.000873542
0.000316397 0.00565247 -0.000863432
0.00032249 0.0056625 -0.000850437
0.000306651 0.00566842 -0.000834749
0.000265144 0.0056663 -0.000817395
0.000196519 0.00565187 -0.000799345
0.000102324 0.00562042 -0.000782553
-9.57834e-06 0.00556295 -0.000769143
-0.000111041 0.00540544 -0.00075888
-5.55207e-05 0.00437031 -0.000675735
7.77705e-05 0.00577411 -0.000824686
0.000116083 0.00725135 -0.000960301
0.000120482 0.00746068 -0.000994855
0.000119388 0.00750219 -0.00101587
0.000125756 0.00751052 -0.00102871
0.000142949 0.00751004 -0.00103595
0.000170126 0.0075081 -0.00103944
0.000204671 0.00750739 -0.00104015
0.000243078 0.00750894 -0.00103832
0.000281066 0.00751314 -0.00103368
0.000313596 0.00751968 -0.00102593
0.00033484 0.00752726 -0.00101477
0.000338557 0.0075336 -0.00100033
0.000318737 0.0075354 -0.00098257
0.000270726 0.00752802 -0.000962557
0.000192122 0.00750642 -0.000941761
8.45226e-05 0.00746489 -0.000922297
-4.26953e-05 0.00739016 -0.000907072
-0.000153652 0.00717164 -0.000896035
-7.68262e-05 0.00573316 -0.000798784
0.000110271 0.00735018 -0.000948116
0.00016771 0.00933356 -0.00109965
0.00017721 0.00962594 -0.00113606
0.000173883 0.00968586 -0.00115883
0.000175131 0.00969929 -0.00117301
0.000186396 0.00969942 -0.00118112
0.000207669 0.00969588 -0.00118524
0.000236723 0.00969227 -0.00118643
0.000270333 0.00969018 -0.00118489
0.000304272 0.00969023 -0.00118035
0.000333205 0.00969227 -0.00117252
0.000350969 0.00969517 -0.00116086
0.000350765 0.00969658 -0.00114533
0.000325502 0.00969291 -0.00112616
0.000269548 0.00967906 -0.0011041
0.0001797 0.0096491 -0.00108096
5.75161e-05 0.00959621 -0.0010591
-8.58149e-05 0.00950107 -0.0010424
-0.000205417 0.00920646 -0.00103121
-0.000102709 0.00728161 -0.000919898
0.000147226 0.00909825 -0.00106287
0.00022751 0.0116767 -0.00122735
0.000243805 0.0120696 -0.00126393
0.000238539 0.0121514 -0.00128753
0.000234119 0.012171 -0.00130263
0.000238364 0.0121721 -0.00131152
0.000252308 0.0121671 -0.00131635
0.00027435 0.0121607 -0.00131819
0.000301488 0.0121548 -0.00131731
0.000329616 0.0121505 -0.00131333
0.000353332 0.0121477 -0.00130597
0.000366091 0.0121456 -0.00129462
0.000360507 0.0121419 -0.00127879
0.000328537 0.0121326 -0.00125893
0.000263401 0.0121121 -0.00123575
0.000161123 0.0120737 -0.00121091
2.29551e-05 0.0120089 -0.00118736
-0.000137492 0.0118904 -0.00116961
-0.000264843 0.0115028 -0.00115888
-0.000132422 0.00900344 -0.00103445
0.000187406 0.0109949 -0.00116546
0.000293291 0.0142568 -0.0013394
0.000317662 0.0147673 -0.00137411
0.000310694 0.0148736 -0.00139738
0.000300219 0.0148996 -0.00141281
0.000296747 0.0149018 -0.00142224
0.000302569 0.0148957 -0.00142772
0.000316602 0.0148869 -0.00143034
0.000336219 0.0148778 -0.00143044
0.000357385 0.0148697 -0.00142767
0.000374917 0.0148627 -0.00142125
0.000381966 0.0148565 -0.00141096
0.000370195 0.0148487 -0.00139622
0.000330893 0.0148351 -0.00137679
0.00025601 0.0148098 -0.00135351
0.000140366 0.0147648 -0.00132799
-1.50269e-05 0.014689 -0.0013037
-0.000193966 0.0145448 -0.00128599
-0.00032934 0.014046 -0.0012762
-0.00016467 0.0108808 -0.00113982
0.00022864 0.0130156 -0.00125658
0.00036102 0.0170469 -0.0014369
0.000393738 0.0176904 -0.00146755
0.000384988 0.0178217 -0.00148909
0.000368343 0.0178531 -0.00150406
0.000357061 0.0178562 -0.0015136
0.000354673 0.0178493 -0.0015195
0.000360506 0.0178388 -0.00152301
0.000372483 0.0178275 -0.00152423
0.000386704 0.0178168 -0.00152314
0.000398146 0.0178076 -0.0015186
0.000399686 0.0177994 -0.00151021
0.000382478 0.0177902 -0.00149747
0.000336741 0.0177761 -0.00147986
0.000252839 0.0177503 -0.00145796
0.000123841 0.0177032 -0.00143341
-4.96052e-05 0.0176202 -0.00140964
-0.000248697 0.0174498 -0.00139294
-0.000393703 0.0168209 -0.00138508
-0.000196852 0.0128962 -0.00123686
0.000267632 0.015147 -0.00134415
0.00042426 0.02003 -0.00152963
0.000463696 0.0208182 -0.00155423
0.000452459 0.020972 -0.00157255
0.00042973 0.0210058 -0.00158606
0.000411245 0.0210084 -0.00159509
0.000401456 0.0210006 -0.00160109
0.000400042 0.0209892 -0.00160554
0.000405449 0.0209771 -0.00160786
0.000414121 0.0209658 -0.00160841
0.000421097 0.0209566 -0.00160626
0.000419188 0.0209497 -0.00160082
0.000399339 0.0209438 -0.00159113
0.000350372 0.0209352 -0.00157675
0.000260516 0.0209164 -0.00155801
0.000120593 0.020876 -0.0015362
-7.05019e-05 0.0207942 -0.00151458
-0.000291586 0.020601 -0.0014998
-0.000449816 0.0198234 -0.00149451
-0.000224908 0.0150423 -0.00133365
0.000299546 0.0174054 -0.00144796
0.000473135 0.0232205 -0.00164166
0.000514593 0.0241593 -0.00165892
0.000499085 0.0243282 -0.00167252
0.000470558 0.024359 -0.00168343
0.000446229 0.0243585 -0.00169128
0.000430848 0.0243492 -0.00169694
0.000424555 0.0243371 -0.00170187
0.000425747 0.0243252 -0.00170555
0.00043157 0.0243152 -0.00170785
0.000437449 0.0243087 -0.00170826
0.00043664 0.024307 -0.00170613
0.000419674 0.02431 -0.00170048
0.000374049 0.0243148 -0.00169072
0.000285459 0.0243141 -0.00167678
0.000141118 0.0242943 -0.00165946
-6.398e-05 0.0242286 -0.00164184
-0.000308713 0.0240219 -0.00163065
-0.000486787 0.0230803 -0.00162773
-0.000243394 0.0173404 -0.00144942
0.000317066 0.0198697 -0.00160774
0.000492461 0.0267009 -0.00182092
0.000526738 0.0277865 -0.00183066
0.000503738 0.0279568 -0.00183808
0.000469891 0.0279757 -0.00184519
0.000442046 0.0279679 -0.0018511
0.000424042 0.0279557 -0.00185617
0.000416363 0.0279432 -0.00186061
0.000417295 0.0279322 -0.00186505
0.000424553 0.0279246 -0.00186897
0.000434512 0.0279227 -0.00187186
0.000441314 0.0279295 -0.00187307
0.000435802 0.0279465 -0.0018718
0.000404473 0.0279731 -0.00186755
0.000330218 0.0280036 -0.00185978
0.000194444 0.0280234 -0.00184879
-1.5167e-05 0.0279973 -0.0018371
-0.00028199 0.0277971 -0.0018308
-0.00048927 0.0266844 -0.00182957
-0.000244635 0.0198711 -0.00162161
0.000308133 0.022738 -0.00189986
0.000458006 0.0306847 -0.00215858
0.000469701 0.0318983 -0.00216218
0.000434381 0.032047 -0.00216225
0.000396224 0.0320416 -0.0021645
0.000368701 0.0320213 -0.00216714
0.00035304 0.0320038 -0.00217088
0.000348723 0.03199 -0.00217482
0.000354334 0.0319796 -0.0021793
0.000368435 0.0319742 -0.00218403
0.000388904 0.0319775 -0.00218858
0.000411439 0.0319935 -0.00219262
0.0004283 0.0320272 -0.00219554
0.000426554 0.0320816 -0.00219682
0.00038665 0.0321556 -0.00219586
0.000282764 0.0322369 -0.00219261
8.96816e-05 0.0322834 -0.00218864
-0.000189162 0.0321275 -0.00218813
-0.000436458 0.0308532 -0.00218618
-0.000218229 0.0228266 -0.00192324
0.000250402 0.0264433 -0.00247739
0.000327794 0.0356407 -0.00283552
0.000293301 0.0369369 -0.00283681
0.000240092 0.0370295 -0.00282853
0.000200661 0.0369845 -0.00282529
0.000179334 0.0369461 -0.00282428
0.000173123 0.0369213 -0.00282527
0.000179202 0.0369044 -0.00282782
0.000196152 0.036893 -0.00283155
0.000223763 0.0368883 -0.00283608
0.000261641 0.0368944 -0.00284125
0.000308317 0.0369173 -0.00284693
0.000359468 0.0369649 -0.00285292
0.000405396 0.0370465 -0.00285882
0.000427034 0.0371695 -0.00286426
0.000392068 0.0373308 -0.00286905
0.000257369 0.0374898 -0.00287376
-3.9913e-06 0.0374394 -0.00288014
-0.000297831 0.0360468 -0.00287377
-0.000148915 0.0266199 -0.00250332
9.60461e-05 0.031918 -0.00367388
2.09194e-05 0.0425632 -0.00424071
-9.20239e-05 0.0438514 -0.00424714
-0.000166266 0.0438418 -0.00423007
-0.000198087 0.0437434 -0.00421961
-0.000201281 0.0436829 -0.00421425
-0.000186546 0.0436485 -0.00421218
-0.000159125 0.0436265 -0.00421234
-0.000120676 0.0436117 -0.00421417
-7.04799e-05 0.0436045 -0.0042173
-6.84929e-06 0.0436089 -0.00422174
7.23651e-05 0.0436319 -0.00422752
0.000168683 0.0436845 -0.00423472
0.000279933 0.0437821 -0.00424338
0.000394408 0.0439439 -0.00425359
0.000480987 0.0441864 -0.00426529
0.000478668 0.0444901 -0.00427858
0.000307648 0.0446302 -0.00429227
-1.68248e-05 0.0432306 -0.00427537
-8.41239e-06 0.0321456 -0.00369162
-0.000271614 0.0411876 -0.00621657
-0.000633144 0.0535267 -0.00719535
-0.000856498 0.0546425 -0.00721881
-0.000938769 0.0544846 -0.00719472
-0.000937746 0.0543293 -0.00717708
-0.000895731 0.0542481 -0.00716629
-0.000833976 0.0542037 -0.00716016
-0.000761132 0.0541747 -0.00715706
-0.000679391 0.0541538 -0.00715607
-0.000587683 0.0541406 -0.00715679
-0.000482647 0.0541382 -0.00715922
-0.000358394 0.054153 -0.00716357
-0.000206365 0.0541966 -0.00717012
-1.66332e-05 0.0542878 -0.00717942
0.000217458 0.0544561 -0.00719184
0.000485738 0.0547433 -0.00720787
0.000731842 0.0551777 -0.00722752
0.000815016 0.0555843 -0.00724706
0.000557724 0.054404 -0.00721096
0.000278862 0.0413858 -0.0062185
-0.00116136 0.056933 -0.0099054
-0.00199041 0.0705935 -0.0112571
-0.00229046 0.0713018 -0.0113052
-0.00229041 0.0710083 -0.0112798
-0.00216425 0.0708251 -0.0112565
-0.00199369 0.0707362 -0.0112405
-0.00181148 0.0706868 -0.01123
-0.00162936 0.0706536 -0.0112233
-0.00145019 0.0706286 -0.0112193
-0.00127274 0.0706107 -0.0112174
-0.00109247 0.0706014 -0.0112175
-0.000900909 0.0706048 -0.01122
-0.000683535 0.0706293 -0.0112254
-0.000417263 0.0706903 -0.0112346
-6.76763e-05 0.070817 -0.0112484
0.000406401 0.071062 -0.0112672
0.00102412 0.0715029 -0.0112897
0.00167205 0.0721025 -0.0113078
0.00185825 0.0714517 -0.0112511
0.000929125 0.0570414 -0.00990479
-0.00311002 0.0284665 0.0395382
-0.00415563 0.0352967 0.0434384
-0.00405422 0.0356509 0.0434648
-0.00359484 0.0355042 0.0434665
-0.00308497 0.0354125 0.0434881
-0.00261622 0.0353681 0.0435069
-0.00220828 0.0353434 0.04352
-0.00185869 0.0353268 0.0435288
-0.00155845 0.0353143 0.0435346
-0.00129743 0.0353053 0.0435381
-0.00106536 0.0353007 0.0435391
-0.000849565 0.0353024 0.0435372
-0.000633081 0.0353146 0.0435311
-0.000388539 0.0353451 0.0435189
-6.70666e-05 0.0354085 0.0434983
0.00042466 0.035531 0.0434676
0.00126089 0.0357514 0.0434317
0.00268014 0.0360512 0.0434172
0.0043647 0.0357259 0.0433819
0.00218235 0.0285207 0.0395146
-3.3974e-05 0.000236797 -0.000473292
-4.69744e-05 0.000280714 -0.000563417
-4.97069e-05 0.00028308 -0.000587917
-4.06716e-05 0.000282017 -0.000602934
-2.06887e-05 0.000281401 -0.000613252
7.96093e-06 0.000281762 -0.000620732
4.25551e-05 0.000283065 -0.000626288
8.02999e-05 0.000285248 -0.00063011
0.000118234 0.000288213 -0.000632019
0.000153247 0.0002918 -0.000631675
0.000182266 0.000295835 -0.00062868
0.000202335 0.000300097 -0.000622702
0.00021069 0.000304169 -0.000613864
0.000205268 0.000307449 -0.000602623
0.00018532 0.000309504 -0.000589632
0.00015179 0.000309897 -0.000575668
0.000107169 0.00030794 -0.000562008
5.60623e-05 0.00030288 -0.000549823
4.88729e-06 0.000292508 -0.000536992
2.44365e-06 0.000245309 -0.000462288
-2.85085e-05 0.000717636 -0.000667426
-4.628e-05 0.000857135 -0.000816996
-5.46616e-05 0.000867855 -0.00085637
-4.91814e-05 0.000866061 -0.000878183
-2.95591e-05 0.000864108 -0.000892196
2.30872e-06 0.000864044 -0.000901721
4.37736e-05 0.000866179 -0.000908251
9.1776e-05 0.000870478 -0.000912205
0.000142802 0.000876791 -0.000913498
0.00019296 0.000884866 -0.000911698
0.00023813 0.000894345 -0.00090627
0.000273961 0.000904577 -0.000896889
0.00029603 0.000914552 -0.000883785
0.00030083 0.000923106 -0.000867424
0.000286208 0.000928938 -0.000848572
0.000251671 0.000930484 -0.000828466
0.000198768 0.000926151 -0.000808854
0.000131912 0.000914078 -0.000791057
5.80705e-05 0.000885793 -0.000770674
2.90353e-05 0.000734736 -0.000653497
-1.94342e-05 0.00140677 -0.000888333
-3.62738e-05 0.00171102 -0.00108946
-4.6817e-05 0.00173977 -0.0011426
-4.34631e-05 0.00173889 -0.00117104
-2.48577e-05 0.00173563 -0.00118847
7.42355e-06 0.00173465 -0.00119958
5.08087e-05 0.00173692 -0.00120654
0.000102203 0.00174261 -0.00121012
0.000157986 0.00175162 -0.00121031
0.000214056 0.00176364 -0.00120664
0.000265795 0.00177811 -0.00119852
0.000308185 0.001794 -0.00118564
0.000336137 0.00180985 -0.00116807
0.000345186 0.00182376 -0.00114627
0.000331994 0.00183327 -0.00112129
0.000295118 0.00183566 -0.00109473
0.000235308 0.00182816 -0.00106862
0.00015614 0.00180716 -0.00104469
6.60422e-05 0.00175261 -0.0010171
3.30211e-05 0.00143164 -0.000863544
-6.84081e-06 0.00231798 -0.0011685
-2.01291e-05 0.00287194 -0.00143007
-3.18952e-05 0.00293244 -0.00149851
-3.0558e-05 0.00293537 -0.00153448
-1.32396e-05 0.0029314 -0.00155586
1.89645e-05 0.00292922 -0.00156882
6.36163e-05 0.00293088 -0.00157633
0.000117594 0.00293691 -0.00157954
0.000177171 0.00294731 -0.00157858
0.00023796 0.00296181 -0.00157295
0.000294918 0.00297972 -0.00156197
0.000342507 0.00299989 -0.00154512
0.00037483 0.00302031 -0.00152243
0.000386278 0.00303821 -0.00149434
0.000372358 0.00305004 -0.00146229
0.000330605 0.0030521 -0.00142813
0.000261009 0.00304021 -0.0013943
0.000166854 0.00300787 -0.00136292
6.01899e-05 0.00291567 -0.00132701
3.00949e-05 0.00234442 -0.00112894
1.04672e-05 0.00347623 -0.00149367
4.0893e-06 0.00438153 -0.00182307
-7.60445e-06 0.00449196 -0.00190776
-8.26857e-06 0.00450287 -0.00195183
7.12897e-06 0.00449928 -0.00197754
3.82894e-05 0.00449578 -0.00199263
8.30504e-05 0.00449607 -0.00200085
0.000138351 0.00450115 -0.00200386
0.000200408 0.00451123 -0.0020019
0.000264628 0.0045262 -0.00199439
0.000325749 0.00454547 -0.00198053
0.000377545 0.00456769 -0.00195962
0.000413189 0.00459038 -0.00193157
0.000425913 0.00461021 -0.00189682
0.000410224 0.00462249 -0.00185706
0.000362327 0.00462231 -0.00181445
0.000281166 0.00460389 -0.00177212
0.000170122 0.00455687 -0.00173282
4.67464e-05 0.00441209 -0.00168783
2.33732e-05 0.00349478 -0.00143827
3.37701e-05 0.00490464 -0.00184908
3.87199e-05 0.0062796 -0.00225053
2.89896e-05 0.00646273 -0.00235147
2.65485e-05 0.00648697 -0.00240381
3.93212e-05 0.00648533 -0.0024341
6.82151e-05 0.00648075 -0.00245147
0.000111476 0.006479 -0.00246063
0.000166176 0.00648182 -0.0024637
0.000228665 0.00648978 -0.00246105
0.000294358 0.0065031 -0.00245199
0.000357695 0.0065213 -0.0024355
0.000411825 0.00654291 -0.00241077
0.000449233 0.0065651 -0.00237752
0.000461796 0.00658414 -0.00233625
0.000442856 0.0065945 -0.0022885
0.000387148 0.00658965 -0.00223708
0.000292758 0.00656218 -0.00218579
0.000163303 0.00649602 -0.00213836
2.31175e-05 0.00627955 -0.00208415
1.15587e-05 0.00490468 -0.00177855
6.40878e-05 0.006618 -0.00221916
8.56588e-05 0.00859647 -0.00269339
8.03141e-05 0.00887949 -0.00280956
7.66329e-05 0.00892361 -0.00286977
8.62333e-05 0.00892604 -0.00290451
0.000111562 0.00892088 -0.00292419
0.000151428 0.00891666 -0.00293453
0.000203278 0.0089161 -0.00293805
0.000263771 0.00892035 -0.00293514
0.000328371 0.00892993 -0.00292507
0.000391306 0.00894448 -0.00290667
0.000445215 0.00896269 -0.00287903
0.000482069 0.00898172 -0.00284113
0.00049255 0.00899702 -0.00279376
0.000468334 0.00900245 -0.00273847
0.000402862 0.00899015 -0.00267852
0.000293184 0.00895079 -0.00261825
0.000143582 0.0088602 -0.00256256
-1.35366e-05 0.00854862 -0.00249945
-6.76829e-06 0.00659026 -0.00213537
0.000101876 0.00861895 -0.00258716
0.000145927 0.011348 -0.00313125
0.000147842 0.0117622 -0.00326037
0.000143796 0.0118336 -0.00332726
0.000149855 0.0118426 -0.00336588
0.000170344 0.0118375 -0.00338782
0.000204942 0.0118306 -0.00339954
0.00025166 0.011826 -0.00340396
0.000307515 0.0118252 -0.00340145
0.000368107 0.0118294 -0.00339136
0.0004277 0.0118382 -0.00337217
0.000478717 0.0118506 -0.00334284
0.000512199 0.0118639 -0.00330191
0.000517954 0.011873 -0.00324977
0.000486061 0.0118708 -0.00318814
0.000408658 0.0118485 -0.00312038
0.000281504 0.0117943 -0.00305171
0.000109728 0.0116731 -0.00298832
-6.38069e-05 0.0112389 -0.00291684
-3.19035e-05 0.00855685 -0.00249344
0.000146881 0.0108962 -0.00293666
0.000219272 0.0145326 -0.0035442
0.000231501 0.0151122 -0.00368262
0.000228136 0.0152189 -0.00375416
0.000230405 0.0152367 -0.00379569
0.000244977 0.0152326 -0.0038196
0.000272699 0.0152232 -0.00383281
0.000312232 0.0152143 -0.00383851
0.000361057 0.0152079 -0.00383723
0.000414978 0.0152055 -0.00382837
0.000468362 0.0152075 -0.00380999
0.00051376 0.0152128 -0.00378053
0.000541204 0.0152185 -0.00373863
0.000539568 0.0152195 -0.00368401