# vtk DataFile Version 2.0 
Visualization 
ASCII 
DATASET STRUCTURED_GRID 
DIMENSIONS 21 21 11
POINTS 4851 float
-0.1 -0.1 0.9
0 -0.1 0.9
0.1 -0.1 0.9
0.2 -0.1 0.9
0.3 -0.1 0.9
0.4 -0.1 0.9
0.5 -0.1 0.9
0.6 -0.1 0.9
0.7 -0.1 0.9
0.8 -0.1 0.9
0.9 -0.1 0.9
1 -0.1 0.9
1.1 -0.1 0.9
1.2 -0.1 0.9
1.3 -0.1 0.9
1.4 -0.1 0.9
1.5 -0.1 0.9
1.6 -0.1 0.9
1.7 -0.1 0.9
1.8 -0.1 0.9
1.9 -0.1 0.9
-0.1 0 0.9
0 0 0.9
0.1 0 0.9
0.2 0 0.9
0.3 0 0.9
0.4 0 0.9
0.5 0 0.9
0.6 0 0.9
0.7 0 0.9
0.8 0 0.9
0.9 0 0.9
1 0 0.9
1.1 0 0.9
1.2 0 0.9
1.3 0 0.9
1.4 0 0.9
1.5 0 0.9
1.6 0 0.9
1.7 0 0.9
1.8 0 0.9
1.9 0 0.9
-0.1 0.1 0.9
0 0.1 0.9
0.1 0.1 0.9
0.2 0.1 0.9
0.3 0.1 0.9
0.4 0.1 0.9
0.5 0.1 0.9
0.6 0.1 0.9
0.7 0.1 0.9
0.8 0.1 0.9
0.9 0.1 0.9
1 0.1 0.9
1.1 0.1 0.9
1.2 0.1 0.9
1.3 0.1 0.9
1.4 0.1 0.9
1.5 0.1 0.9
1.6 0.1 0.9
1.7 0.1 0.9
1.8 0.1 0.9
1.9 0.1 0.9
-0.1 0.2 0.9
0 0.2 0.9
0.1 0.2 0.9
0.2 0.2 0.9
0.3 0.2 0.9
0.4 0.2 0.9
0.5 0.2 0.9
0.6 0.2 0.9
0.7 0.2 0.9
0.8 0.2 0.9
0.9 0.2 0.9
1 0.2 0.9
1.1 0.2 0.9
1.2 0.2 0.9
1.3 0.2 0.9
1.4 0.2 0.9
1.5 0.2 0.9
1.6 0.2 0.9
1.7 0.2 0.9
1.8 0.2 0.9
1.9 0.2 0.9
-0.1 0.3 0.9
0 0.3 0.9
0.1 0.3 0.9
0.2 0.3 0.9
0.3 0.3 0.9
0.4 0.3 0.9
0.5 0.3 0.9
0.6 0.3 0.9
0.7 0.3 0.9
0.8 0.3 0.9
0.9 0.3 0.9
1 0.3 0.9
1.1 0.3 0.9
1.2 0.3 0.9
1.3 0.3 0.9
1.4 0.3 0.9
1.5 0.3 0.9
1.6 0.3 0.9
1.7 0.3 0.9
1.8 0.3 0.9
1.9 0.3 0.9
-0.1 0.4 0.9
0 0.4 0.9
0.1 0.4 0.9
0.2 0.4 0.9
0.3 0.4 0.9
0.4 0.4 0.9
0.5 0.4 0.9
0.6 0.4 0.9
0.7 0.4 0.9
0.8 0.4 0.9
0.9 0.4 0.9
1 0.4 0.9
1.1 0.4 0.9
1.2 0.4 0.9
1.3 0.4 0.9
1.4 0.4 0.9
1.5 0.4 0.9
1.6 0.4 0.9
1.7 0.4 0.9
1.8 0.4 0.9
1.9 0.4 0.9
-0.1 0.5 0.9
0 0.5 0.9
0.1 0.5 0.9
0.2 0.5 0.9
0.3 0.5 0.9
0.4 0.5 0.9
0.5 0.5 0.9
0.6 0.5 0.9
0.7 0.5 0.9
0.8 0.5 0.9
0.9 0.5 0.9
1 0.5 0.9
1.1 0.5 0.9
1.2 0.5 0.9
1.3 0.5 0.9
1.4 0.5 0.9
1.5 0.5 0.9
1.6 0.5 0.9
1.7 0.5 0.9
1.8 0.5 0.9
1.9 0.5 0.9
-0.1 0.6 0.9
0 0.6 0.9
0.1 0.6 0.9
0.2 0.6 0.9
0.3 0.6 0.9
0.4 0.6 0.9
0.5 0.6 0.9
0.6 0.6 0.9
0.7 0.6 0.9
0.8 0.6 0.9
0.9 0.6 0.9
1 0.6 0.9
1.1 0.6 0.9
1.2 0.6 0.9
1.3 0.6 0.9
1.4 0.6 0.9
1.5 0.6 0.9
1.6 0.6 0.9
1.7 0.6 0.9
1.8 0.6 0.9
1.9 0.6 0.9
-0.1 0.7 0.9
0 0.7 0.9
0.1 0.7 0.9
0.2 0.7 0.9
0.3 0.7 0.9
0.4 0.7 0.9
0.5 0.7 0.9
0.6 0.7 0.9
0.7 0.7 0.9
0.8 0.7 0.9
0.9 0.7 0.9
1 0.7 0.9
1.1 0.7 0.9
1.2 0.7 0.9
1.3 0.7 0.9
1.4 0.7 0.9
1.5 0.7 0.9
1.6 0.7 0.9
1.7 0.7 0.9
1.8 0.7 0.9
1.9 0.7 0.9
-0.1 0.8 0.9
0 0.8 0.9
0.1 0.8 0.9
0.2 0.8 0.9
0.3 0.8 0.9
0.4 0.8 0.9
0.5 0.8 0.9
0.6 0.8 0.9
0.7 0.8 0.9
0.8 0.8 0.9
0.9 0.8 0.9
1 0.8 0.9
1.1 0.8 0.9
1.2 0.8 0.9
1.3 0.8 0.9
1.4 0.8 0.9
1.5 0.8 0.9
1.6 0.8 0.9
1.7 0.8 0.9
1.8 0.8 0.9
1.9 0.8 0.9
-0.1 0.9 0.9
0 0.9 0.9
0.1 0.9 0.9
0.2 0.9 0.9
0.3 0.9 0.9
0.4 0.9 0.9
0.5 0.9 0.9
0.6 0.9 0.9
0.7 0.9 0.9
0.8 0.9 0.9
0.9 0.9 0.9
1 0.9 0.9
1.1 0.9 0.9
1.2 0.9 0.9
1.3 0.9 0.9
1.4 0.9 0.9
1.5 0.9 0.9
1.6 0.9 0.9
1.7 0.9 0.9
1.8 0.9 0.9
1.9 0.9 0.9
-0.1 1 0.9
0 1 0.9
0.1 1 0.9
0.2 1 0.9
0.3 1 0.9
0.4 1 0.9
0.5 1 0.9
0.6 1 0.9
0.7 1 0.9
0.8 1 0.9
0.9 1 0.9
1 1 0.9
1.1 1 0.9
1.2 1 0.9
1.3 1 0.9
1.4 1 0.9
1.5 1 0.9
1.6 1 0.9
1.7 1 0.9
1.8 1 0.9
1.9 1 0.9
-0.1 1.1 0.9
0 1.1 0.9
0.1 1.1 0.9
0.2 1.1 0.9
0.3 1.1 0.9
0.4 1.1 0.9
0.5 1.1 0.9
0.6 1.1 0.9
0.7 1.1 0.9
0.8 1.1 0.9
0.9 1.1 0.9
1 1.1 0.9
1.1 1.1 0.9
1.2 1.1 0.9
1.3 1.1 0.9
1.4 1.1 0.9
1.5 1.1 0.9
1.6 1.1 0.9
1.7 1.1 0.9
1.8 1.1 0.9
1.9 1.1 0.9
-0.1 1.2 0.9
0 1.2 0.9
0.1 1.2 0.9
0.2 1.2 0.9
0.3 1.2 0.9
0.4 1.2 0.9
0.5 1.2 0.9
0.6 1.2 0.9
0.7 1.2 0.9
0.8 1.2 0.9
0.9 1.2 0.9
1 1.2 0.9
1.1 1.2 0.9
1.2 1.2 0.9
1.3 1.2 0.9
1.4 1.2 0.9
1.5 1.2 0.9
1.6 1.2 0.9
1.7 1.2 0.9
1.8 1.2 0.9
1.9 1.2 0.9
-0.1 1.3 0.9
0 1.3 0.9
0.1 1.3 0.9
0.2 1.3 0.9
0.3 1.3 0.9
0.4 1.3 0.9
0.5 1.3 0.9
0.6 1.3 0.9
0.7 1.3 0.9
0.8 1.3 0.9
0.9 1.3 0.9
1 1.3 0.9
1.1 1.3 0.9
1.2 1.3 0.9
1.3 1.3 0.9
1.4 1.3 0.9
1.5 1.3 0.9
1.6 1.3 0.9
1.7 1.3 0.9
1.8 1.3 0.9
1.9 1.3 0.9
-0.1 1.4 0.9
0 1.4 0.9
0.1 1.4 0.9
0.2 1.4 0.9
0.3 1.4 0.9
0.4 1.4 0.9
0.5 1.4 0.9
0.6 1.4 0.9
0.7 1.4 0.9
0.8 1.4 0.9
0.9 1.4 0.9
1 1.4 0.9
1.1 1.4 0.9
1.2 1.4 0.9
1.3 1.4 0.9
1.4 1.4 0.9
1.5 1.4 0.9
1.6 1.4 0.9
1.7 1.4 0.9
1.8 1.4 0.9
1.9 1.4 0.9
-0.1 1.5 0.9
0 1.5 0.9
0.1 1.5 0.9
0.2 1.5 0.9
0.3 1.5 0.9
0.4 1.5 0.9
0.5 1.5 0.9
0.6 1.5 0.9
0.7 1.5 0.9
0.8 1.5 0.9
0.9 1.5 0.9
1 1.5 0.9
1.1 1.5 0.9
1.2 1.5 0.9
1.3 1.5 0.9
1.4 1.5 0.9
1.5 1.5 0.9
1.6 1.5 0.9
1.7 1.5 0.9
1.8 1.5 0.9
1.9 1.5 0.9
-0.1 1.6 0.9
0 1.6 0.9
0.1 1.6 0.9
0.2 1.6 0.9
0.3 1.6 0.9
0.4 1.6 0.9
0.5 1.6 0.9
0.6 1.6 0.9
0.7 1.6 0.9
0.8 1.6 0.9
0.9 1.6 0.9
1 1.6 0.9
1.1 1.6 0.9
1.2 1.6 0.9
1.3 1.6 0.9
1.4 1.6 0.9
1.5 1.6 0.9
1.6 1.6 0.9
1.7 1.6 0.9
1.8 1.6 0.9
1.9 1.6 0.9
-0.1 1.7 0.9
0 1.7 0.9
0.1 1.7 0.9
0.2 1.7 0.9
0.3 1.7 0.9
0.4 1.7 0.9
0.5 1.7 0.9
0.6 1.7 0.9
0.7 1.7 0.9
0.8 1.7 0.9
0.9 1.7 0.9
1 1.7 0.9
1.1 1.7 0.9
1.2 1.7 0.9
1.3 1.7 0.9
1.4 1.7 0.9
1.5 1.7 0.9
1.6 1.7 0.9
1.7 1.7 0.9
1.8 1.7 0.9
1.9 1.7 0.9
-0.1 1.8 0.9
0 1.8 0.9
0.1 1.8 0.9
0.2 1.8 0.9
0.3 1.8 0.9
0.4 1.8 0.9
0.5 1.8 0.9
0.6 1.8 0.9
0.7 1.8 0.9
0.8 1.8 0.9
0.9 1.8 0.9
1 1.8 0.9
1.1 1.8 0.9
1.2 1.8 0.9
1.3 1.8 0.9
1.4 1.8 0.9
1.5 1.8 0.9
1.6 1.8 0.9
1.7 1.8 0.9
1.8 1.8 0.9
1.9 1.8 0.9
-0.1 1.9 0.9
0 1.9 0.9
0.1 1.9 0.9
0.2 1.9 0.9
0.3 1.9 0.9
0.4 1.9 0.9
0.5 1.9 0.9
0.6 1.9 0.9
0.7 1.9 0.9
0.8 1.9 0.9
0.9 1.9 0.9
1 1.9 0.9
1.1 1.9 0.9
1.2 1.9 0.9
1.3 1.9 0.9
1.4 1.9 0.9
1.5 1.9 0.9
1.6 1.9 0.9
1.7 1.9 0.9
1.8 1.9 0.9
1.9 1.9 0.9
-0.1 -0.1 1
0 -0.1 1
0.1 -0.1 1
0.2 -0.1 1
0.3 -0.1 1
0.4 -0.1 1
0.5 -0.1 1
0.6 -0.1 1
0.7 -0.1 1
0.8 -0.1 1
0.9 -0.1 1
1 -0.1 1
1.1 -0.1 1
1.2 -0.1 1
1.3 -0.1 1
1.4 -0.1 1
1.5 -0.1 1
1.6 -0.1 1
1.7 -0.1 1
1.8 -0.1 1
1.9 -0.1 1
-0.1 0 1
0 0 1
0.1 0 1
0.2 0 1
0.3 0 1
0.4 0 1
0.5 0 1
0.6 0 1
0.7 0 1
0.8 0 1
0.9 0 1
1 0 1
1.1 0 1
1.2 0 1
1.3 0 1
1.4 0 1
1.5 0 1
1.6 0 1
1.7 0 1
1.8 0 1
1.9 0 1
-0.1 0.1 1
0 0.1 1
0.1 0.1 1
0.2 0.1 1
0.3 0.1 1
0.4 0.1 1
0.5 0.1 1
0.6 0.1 1
0.7 0.1 1
0.8 0.1 1
0.9 0.1 1
1 0.1 1
1.1 0.1 1
1.2 0.1 1
1.3 0.1 1
1.4 0.1 1
1.5 0.1 1
1.6 0.1 1
1.7 0.1 1
1.8 0.1 1
1.9 0.1 1
-0.1 0.2 1
0 0.2 1
0.1 0.2 1
0.2 0.2 1
0.3 0.2 1
0.4 0.2 1
0.5 0.2 1
0.6 0.2 1
0.7 0.2 1
0.8 0.2 1
0.9 0.2 1
1 0.2 1
1.1 0.2 1
1.2 0.2 1
1.3 0.2 1
1.4 0.2 1
1.5 0.2 1
1.6 0.2 1
1.7 0.2 1
1.8 0.2 1
1.9 0.2 1
-0.1 0.3 1
0 0.3 1
0.1 0.3 1
0.2 0.3 1
0.3 0.3 1
0.4 0.3 1
0.5 0.3 1
0.6 0.3 1
0.7 0.3 1
0.8 0.3 1
0.9 0.3 1
1 0.3 1
1.1 0.3 1
1.2 0.3 1
1.3 0.3 1
1.4 0.3 1
1.5 0.3 1
1.6 0.3 1
1.7 0.3 1
1.8 0.3 1
1.9 0.3 1
-0.1 0.4 1
0 0.4 1
0.1 0.4 1
0.2 0.4 1
0.3 0.4 1
0.4 0.4 1
0.5 0.4 1
0.6 0.4 1
0.7 0.4 1
0.8 0.4 1
0.9 0.4 1
1 0.4 1
1.1 0.4 1
1.2 0.4 1
1.3 0.4 1
1.4 0.4 1
1.5 0.4 1
1.6 0.4 1
1.7 0.4 1
1.8 0.4 1
1.9 0.4 1
-0.1 0.5 1
0 0.5 1
0.1 0.5 1
0.2 0.5 1
0.3 0.5 1
0.4 0.5 1
0.5 0.5 1
0.6 0.5 1
0.7 0.5 1
0.8 0.5 1
0.9 0.5 1
1 0.5 1
1.1 0.5 1
1.2 0.5 1
1.3 0.5 1
1.4 0.5 1
1.5 0.5 1
1.6 0.5 1
1.7 0.5 1
1.8 0.5 1
1.9 0.5 1
-0.1 0.6 1
0 0.6 1
0.1 0.6 1
0.2 0.6 1
0.3 0.6 1
0.4 0.6 1
0.5 0.6 1
0.6 0.6 1
0.7 0.6 1
0.8 0.6 1
0.9 0.6 1
1 0.6 1
1.1 0.6 1
1.2 0.6 1
1.3 0.6 1
1.4 0.6 1
1.5 0.6 1
1.6 0.6 1
1.7 0.6 1
1.8 0.6 1
1.9 0.6 1
-0.1 0.7 1
0 0.7 1
0.1 0.7 1
0.2 0.7 1
0.3 0.7 1
0.4 0.7 1
0.5 0.7 1
0.6 0.7 1
0.7 0.7 1
0.8 0.7 1
0.9 0.7 1
1 0.7 1
1.1 0.7 1
1.2 0.7 1
1.3 0.7 1
1.4 0.7 1
1.5 0.7 1
1.6 0.7 1
1.7 0.7 1
1.8 0.7 1
1.9 0.7 1
-0.1 0.8 1
0 0.8 1
0.1 0.8 1
0.2 0.8 1
0.3 0.8 1
0.4 0.8 1
0.5 0.8 1
0.6 0.8 1
0.7 0.8 1
0.8 0.8 1
0.9 0.8 1
1 0.8 1
1.1 0.8 1
1.2 0.8 1
1.3 0.8 1
1.4 0.8 1
1.5 0.8 1
1.6 0.8 1
1.7 0.8 1
1.8 0.8 1
1.9 0.8 1
-0.1 0.9 1
0 0.9 1
0.1 0.9 1
0.2 0.9 1
0.3 0.9 1
0.4 0.9 1
0.5 0.9 1
0.6 0.9 1
0.7 0.9 1
0.8 0.9 1
0.9 0.9 1
1 0.9 1
1.1 0.9 1
1.2 0.9 1
1.3 0.9 1
1.4 0.9 1
1.5 0.9 1
1.6 0.9 1
1.7 0.9 1
1.8 0.9 1
1.9 0.9 1
-0.1 1 1
0 1 1
0.1 1 1
0.2 1 1
0.3 1 1
0.4 1 1
0.5 1 1
0.6 1 1
0.7 1 1
0.8 1 1
0.9 1 1
1 1 1
1.1 1 1
1.2 1 1
1.3 1 1
1.4 1 1
1.5 1 1
1.6 1 1
1.7 1 1
1.8 1 1
1.9 1 1
-0.1 1.1 1
0 1.1 1
0.1 1.1 1
0.2 1.1 1
0.3 1.1 1
0.4 1.1 1
0.5 1.1 1
0.6 1.1 1
0.7 1.1 1
0.8 1.1 1
0.9 1.1 1
1 1.1 1
1.1 1.1 1
1.2 1.1 1
1.3 1.1 1
1.4 1.1 1
1.5 1.1 1
1.6 1.1 1
1.7 1.1 1
1.8 1.1 1
1.9 1.1 1
-0.1 1.2 1
0 1.2 1
0.1 1.2 1
0.2 1.2 1
0.3 1.2 1
0.4 1.2 1
0.5 1.2 1
0.6 1.2 1
0.7 1.2 1
0.8 1.2 1
0.9 1.2 1
1 1.2 1
1.1 1.2 1
1.2 1.2 1
1.3 1.2 1
1.4 1.2 1
1.5 1.2 1
1.6 1.2 1
1.7 1.2 1
1.8 1.2 1
1.9 1.2 1
-0.1 1.3 1
0 1.3 1
0.1 1.3 1
0.2 1.3 1
0.3 1.3 1
0.4 1.3 1
0.5 1.3 1
0.6 1.3 1
0.7 1.3 1
0.8 1.3 1
0.9 1.3 1
1 1.3 1
1.1 1.3 1
1.2 1.3 1
1.3 1.3 1
1.4 1.3 1
1.5 1.3 1
1.6 1.3 1
1.7 1.3 1
1.8 1.3 1
1.9 1.3 1
-0.1 1.4 1
0 1.4 1
0.1 1.4 1
0.2 1.4 1
0.3 1.4 1
0.4 1.4 1
0.5 1.4 1
0.6 1.4 1
0.7 1.4 1
0.8 1.4 1
0.9 1.4 1
1 1.4 1
1.1 1.4 1
1.2 1.4 1
1.3 1.4 1
1.4 1.4 1
1.5 1.4 1
1.6 1.4 1
1.7 1.4 1
1.8 1.4 1
1.9 1.4 1
-0.1 1.5 1
0 1.5 1
0.1 1.5 1
0.2 1.5 1
0.3 1.5 1
0.4 1.5 1
0.5 1.5 1
0.6 1.5 1
0.7 1.5 1
0.8 1.5 1
0.9 1.5 1
1 1.5 1
1.1 1.5 1
1.2 1.5 1
1.3 1.5 1
1.4 1.5 1
1.5 1.5 1
1.6 1.5 1
1.7 1.5 1
1.8 1.5 1
1.9 1.5 1
-0.1 1.6 1
0 1.6 1
0.1 1.6 1
0.2 1.6 1
0.3 1.6 1
0.4 1.6 1
0.5 1.6 1
0.6 1.6 1
0.7 1.6 1
0.8 1.6 1
0.9 1.6 1
1 1.6 1
1.1 1.6 1
1.2 1.6 1
1.3 1.6 1
1.4 1.6 1
1.5 1.6 1
1.6 1.6 1
1.7 1.6 1
1.8 1.6 1
1.9 1.6 1
-0.1 1.7 1
0 1.7 1
0.1 1.7 1
0.2 1.7 1
0.3 1.7 1
0.4 1.7 1
0.5 1.7 1
0.6 1.7 1
0.7 1.7 1
0.8 1.7 1
0.9 1.7 1
1 1.7 1
1.1 1.7 1
1.2 1.7 1
1.3 1.7 1
1.4 1.7 1
1.5 1.7 1
1.6 1.7 1
1.7 1.7 1
1.8 1.7 1
1.9 1.7 1
-0.1 1.8 1
0 1.8 1
0.1 1.8 1
0.2 1.8 1
0.3 1.8 1
0.4 1.8 1
0.5 1.8 1
0.6 1.8 1
0.7 1.8 1
0.8 1.8 1
0.9 1.8 1
1 1.8 1
1.1 1.8 1
1.2 1.8 1
1.3 1.8 1
1.4 1.8 1
1.5 1.8 1
1.6 1.8 1
1.7 1.8 1
1.8 1.8 1
1.9 1.8 1
-0.1 1.9 1
0 1.9 1
0.1 1.9 1
0.2 1.9 1
0.3 1.9 1
0.4 1.9 1
0.5 1.9 1
0.6 1.9 1
0.7 1.9 1
0.8 1.9 1
0.9 1.9 1
1 1.9 1
1.1 1.9 1
1.2 1.9 1
1.3 1.9 1
1.4 1.9 1
1.5 1.9 1
1.6 1.9 1
1.7 1.9 1
1.8 1.9 1
1.9 1.9 1
-0.1 -0.1 1.1
0 -0.1 1.1
0.1 -0.1 1.1
0.2 -0.1 1.1
0.3 -0.1 1.1
0.4 -0.1 1.1
0.5 -0.1 1.1
0.6 -0.1 1.1
0.7 -0.1 1.1
0.8 -0.1 1.1
0.9 -0.1 1.1
1 -0.1 1.1
1.1 -0.1 1.1
1.2 -0.1 1.1
1.3 -0.1 1.1
1.4 -0.1 1.1
1.5 -0.1 1.1
1.6 -0.1 1.1
1.7 -0.1 1.1
1.8 -0.1 1.1
1.9 -0.1 1.1
-0.1 0 1.1
0 0 1.1
0.1 0 1.1
0.2 0 1.1
0.3 0 1.1
0.4 0 1.1
0.5 0 1.1
0.6 0 1.1
0.7 0 1.1
0.8 0 1.1
0.9 0 1.1
1 0 1.1
1.1 0 1.1
1.2 0 1.1
1.3 0 1.1
1.4 0 1.1
1.5 0 1.1
[...]
CELL_DATA 4000
VECTORS velocity double 
8.67828e-05 -1.21566e-05 0.00254279
0.000145863 1.18966e-05 0.00433224
0.000155367 2.55035e-05 0.00485264
0.000134201 2.7952e-05 0.00503359
9.65858e-05 2.63422e-05 0.00510086
5.04122e-05 2.32888e-05 0.00511348
3.01586e-07 1.92446e-05 0.00508796
-5.03123e-05 1.41786e-05 0.00503022
-9.83632e-05 8.25262e-06 0.00494356
-0.000140797 1.88626e-06 0.00483143
-0.000174939 -4.30246e-06 0.00469879
-0.000198785 -9.56416e-06 0.00455278
-0.000211602 -1.30473e-05 0.00440329
-0.000214587 -1.39077e-05 0.00426221
-0.000211171 -1.15757e-05 0.0041422
-0.000206813 -6.2026e-06 0.00405351
-0.000207836 8.36699e-07 0.00399526
-0.000217302 6.39153e-06 0.0039217
-0.000222046 6.9668e-06 0.00361556
-0.000111023 1.10559e-05 0.00217768
0.000133063 -0.000178814 0.00454977
0.000211351 -0.000198958 0.00798597
0.000223451 -0.000195463 0.00906349
0.000197048 -0.000201383 0.00943163
0.000149283 -0.000209411 0.00955991
8.86035e-05 -0.000217483 0.00957953
1.99289e-05 -0.000226352 0.00952624
-5.2545e-05 -0.000236808 0.0094116
-0.000124488 -0.000248765 0.00924198
-0.000191237 -0.000261341 0.00902396
-0.000248285 -0.000273088 0.00876692
-0.000291709 -0.000282083 0.00848431
-0.0003191 -0.000286139 0.00819454
-0.000330677 -0.000283131 0.00792024
-0.000330202 -0.000271666 0.00768606
-0.000325245 -0.000251815 0.00751227
-0.000326444 -0.000226428 0.00739482
-0.000340864 -0.000201826 0.00723424
-0.000345281 -0.00018463 0.00659337
-0.00017264 -0.000140391 0.0038942
0.000140398 -0.00056007 0.00537301
0.000211792 -0.000708859 0.00934679
0.000212977 -0.000745491 0.0105929
0.000176906 -0.000774109 0.0110219
0.000120959 -0.000794836 0.0111746
5.23824e-05 -0.000810063 0.0111996
-2.47652e-05 -0.000823815 0.0111349
-0.000106401 -0.000838589 0.010992
-0.000187726 -0.000854809 0.0107775
-0.00026322 -0.0008713 0.0104989
-0.000327141 -0.000885734 0.0101672
-0.000374166 -0.000894838 0.00979907
-0.000400562 -0.000894775 0.00941764
-0.000405712 -0.000881718 0.00905259
-0.000393373 -0.000852986 0.00873776
-0.000372809 -0.000808416 0.00850424
-0.000358431 -0.00075192 0.0083573
-0.000362983 -0.000693126 0.00819448
-0.000365391 -0.000640024 0.00752587
-0.000182695 -0.000496947 0.00453363
0.000117447 -0.0011749 0.00570564
0.000159296 -0.00155192 0.00961273
0.000138683 -0.00166146 0.0107801
8.9313e-05 -0.00172837 0.0111871
2.52038e-05 -0.00176896 0.0113424
-4.94144e-05 -0.00179397 0.0113718
-0.00013205 -0.00181282 0.0113024
-0.000218996 -0.0018308 0.0111415
-0.000305044 -0.0018493 0.0108944
-0.000383725 -0.00186708 0.0105683
-0.000447873 -0.00188086 0.0101751
-0.000490496 -0.00188584 0.00973325
-0.0005062 -0.00187631 0.00926983
-0.000493293 -0.00184643 0.0088211
-0.00045551 -0.00179161 0.00843088
-0.000403617 -0.00171084 0.00814431
-0.000356574 -0.00160919 0.00798842
-0.000335354 -0.00149922 0.00789532
-0.000331402 -0.00138739 0.00742184
-0.000165701 -0.00106905 0.00469929
6.45436e-05 -0.00202686 0.00551429
5.29562e-05 -0.00274735 0.00881906
-1.0534e-06 -0.00296712 0.00969467
-6.7263e-05 -0.00308958 0.0100064
-0.000139016 -0.00315805 0.0101433
-0.000217283 -0.00319594 0.010174
-0.00030213 -0.00322031 0.0101029
-0.000390625 -0.00324045 0.00992899
-0.00047726 -0.0032593 0.00965507
-0.00055446 -0.0032757 0.00928764
-0.000613367 -0.00328547 0.00883863
-0.000645001 -0.00328208 0.00832787
-0.000641909 -0.00325761 0.00778623
-0.000600639 -0.00320373 0.00725688
-0.000524498 -0.00311353 0.00679471
-0.000425967 -0.00298438 0.006463
-0.000328872 -0.00282187 0.00632124
-0.000265949 -0.00264175 0.00636876
-0.00025092 -0.00244322 0.00629306
-0.00012546 -0.00185761 0.00435528
-2.14986e-05 -0.00309386 0.00457751
-0.000112835 -0.00428236 0.00662243
-0.000212991 -0.00465411 0.00695761
-0.000299799 -0.00485076 0.0070864
-0.000378373 -0.00495576 0.00717692
-0.000457343 -0.00500997 0.00720227
-0.000540534 -0.00504057 0.00713059
-0.000626256 -0.00506211 0.00694839
-0.000708845 -0.00507977 0.00665393
-0.000779527 -0.00509262 0.00625231
-0.000827477 -0.00509563 0.00575498
-0.000841357 -0.00508046 0.00518297
-0.000811105 -0.0050365 0.00457083
-0.000730906 -0.00495235 0.003969
-0.000602846 -0.00481786 0.00344477
-0.000440819 -0.0046281 0.00308327
-0.000274705 -0.00438838 0.00298873
-0.000151991 -0.00411653 0.00326212
-0.000119851 -0.00379772 0.00382013
-5.99257e-05 -0.00284223 0.00329549
-0.000144101 -0.00431505 0.00261689
-0.000343848 -0.00609431 0.00255158
-0.000503888 -0.00666272 0.00203136
-0.000615217 -0.0069527 0.00186436
-0.000699532 -0.00710278 0.00187008
-0.000775866 -0.0071768 0.00187926
-0.000853172 -0.00721465 0.00180749
-0.000931589 -0.00723732 0.00162315
-0.00100533 -0.00725272 0.00131867
-0.00106443 -0.0072604 0.000896412
-0.00109587 -0.00725462 0.000366716
-0.0010854 -0.0072253 -0.000248821
-0.00101974 -0.00715873 -0.000912603
-0.000889737 -0.00703962 -0.0015672
-0.000695486 -0.00685382 -0.0021321
-0.000451678 -0.00659264 -0.00249647
-0.000194713 -0.00626004 -0.00249877
8.97549e-06 -0.0058742 -0.00189468
6.6478e-05 -0.00539706 -0.000418398
3.3239e-05 -0.00396775 0.00126221
-0.000305853 -0.00557746 -0.000637352
-0.000643603 -0.00804778 -0.00384008
-0.000876939 -0.00885445 -0.00559326
-0.00101595 -0.00925443 -0.00619438
-0.00110427 -0.00945654 -0.00632286
-0.00117419 -0.009553 -0.0063452
-0.00124102 -0.00959887 -0.00641797
-0.00130724 -0.0096226 -0.00659757
-0.0013671 -0.00963526 -0.00689986
-0.0014096 -0.00963727 -0.00732605
-0.00141947 -0.00962225 -0.00786778
-0.001379 -0.00957845 -0.00850357
-0.00127083 -0.00948914 -0.00919344
-0.00108169 -0.00933438 -0.00987336
-0.000808067 -0.00909449 -0.0104492
-0.00046446 -0.00875573 -0.0107798
-9.38935e-05 -0.00831824 -0.0106308
0.000214261 -0.00779793 -0.00956692
0.000308117 -0.0071235 -0.00683105
0.000154059 -0.00513113 -0.00199313
-0.000503864 -0.00670538 -0.00539518
-0.00100609 -0.00991852 -0.0129062
-0.00132367 -0.0109943 -0.0163286
-0.00149192 -0.0115146 -0.0175272
-0.00158163 -0.0117719 -0.0178499
-0.00164113 -0.0118917 -0.0179236
-0.00169318 -0.0119457 -0.0180004
-0.001743 -0.0119705 -0.0181694
-0.00178509 -0.0119807 -0.0184574
-0.00180743 -0.011978 -0.0188697
-0.00179261 -0.0119556 -0.0194003
-0.00171925 -0.0119003 -0.0200288
-0.00156496 -0.0117923 -0.0207136
-0.00131085 -0.011607 -0.0213846
-0.000948445 -0.0113179 -0.0219332
-0.00048974 -0.0109036 -0.0221839
1.60548e-05 -0.0103578 -0.0218121
0.000453308 -0.00968916 -0.0201365
0.000597137 -0.00878293 -0.0157484
0.000298569 -0.00617227 -0.00666823
-0.000728477 -0.00745975 -0.0117534
-0.00141258 -0.0113876 -0.0248031
-0.00181968 -0.0127419 -0.0303598
-0.00201593 -0.013381 -0.0323333
-0.00210356 -0.0136899 -0.0329164
-0.00214875 -0.0138306 -0.0330647
-0.00218237 -0.0138918 -0.0331503
-0.00221284 -0.0139177 -0.0333038
-0.00223513 -0.0139264 -0.0335659
-0.00223627 -0.0139214 -0.0339462
-0.00219692 -0.013896 -0.0344414
-0.00209208 -0.013836 -0.0350326
-0.00189387 -0.0137193 -0.0356776
-0.0015763 -0.0135165 -0.0363012
-0.00112325 -0.0131937 -0.0367804
-0.00054182 -0.0127193 -0.0369006
0.000115022 -0.0120761 -0.0362284
0.000702993 -0.0112591 -0.0337766
0.000912776 -0.010099 -0.0273182
0.000456388 -0.00687267 -0.0128557
-0.00095968 -0.00755103 -0.0196164
-0.00182572 -0.0120533 -0.039345
-0.00231767 -0.0136616 -0.0474755
-0.00253625 -0.0143994 -0.050394
-0.00261724 -0.0147467 -0.0513015
-0.00264511 -0.014901 -0.0515475
-0.00265844 -0.0149662 -0.051648
-0.00266877 -0.0149929 -0.0517829
-0.00267203 -0.0150019 -0.0520092
-0.00265458 -0.0149982 -0.0523424
-0.00259558 -0.0149762 -0.052781
-0.00246704 -0.0149219 -0.0533079
-0.00223551 -0.0148123 -0.0538816
-0.00186674 -0.0146144 -0.0544236
-0.00133439 -0.0142865 -0.0547964
-0.00063628 -0.0137854 -0.0547423
0.00017454 -0.0130776 -0.0536987
0.000926257 -0.0121346 -0.0503142
0.00121845 -0.0107225 -0.0413855
0.000609227 -0.00696696 -0.0204725
-0.00116544 -0.00667365 -0.0286232
-0.00218606 -0.0114692 -0.0558697
-0.00274271 -0.0132596 -0.0669034
-0.00297174 -0.0140522 -0.0708944
-0.0030404 -0.0144119 -0.0721728
-0.00304933 -0.0145667 -0.0725331
-0.0030433 -0.0146303 -0.0726543
-0.00303601 -0.0146566 -0.0727703
-0.0030245 -0.0146674 -0.0729558
-0.00299539 -0.014669 -0.0732321
-0.00292723 -0.0146579 -0.0736006
-0.00279022 -0.0146221 -0.0740462
-0.00254644 -0.0145396 -0.0745291
-0.00215295 -0.0143765 -0.0749698
-0.00157089 -0.0140857 -0.0752182
-0.000783964 -0.0136117 -0.0749692
0.000161773 -0.0129 -0.0735136
0.00107308 -0.0118866 -0.069083
0.00146117 -0.0102629 -0.0573742
0.000730585 -0.00617365 -0.0291969
-0.00130079 -0.00456848 -0.0381028
-0.00241001 -0.00921935 -0.0731368
-0.0029905 -0.0110605 -0.0871706
-0.00321023 -0.0118349 -0.0922651
-0.00325993 -0.0121674 -0.0939219
-0.00325034 -0.0123039 -0.0943976
-0.00322912 -0.012358 -0.0945408
-0.00321047 -0.0123813 -0.0946402
-0.00319225 -0.0123946 -0.094786
-0.00316249 -0.0124048 -0.0950053
-0.00310078 -0.0124112 -0.0953023
-0.00297769 -0.0124057 -0.0956652
-0.00275295 -0.0123708 -0.0960586
-0.00237687 -0.0122757 -0.0964051
-0.00179708 -0.0120728 -0.0965457
-0.000978514 -0.0116977 -0.0961272
4.97414e-05 -0.0110731 -0.0942824
0.00108719 -0.0100872 -0.0887922
0.00157551 -0.00834806 -0.0741928
0.000787757 -0.00424971 -0.0384284
-0.00130841 -0.00111542 -0.0470793
-0.00239159 -0.00503118 -0.0892734
-0.0029301 -0.00672494 -0.105994
-0.00311261 -0.00737944 -0.112042
-0.00313666 -0.00763418 -0.114012
-0.00311177 -0.00772954 -0.114579
-0.00308284 -0.00776482 -0.114737
-0.00306236 -0.00778158 -0.114822
-0.00304863 -0.00779648 -0.114936
-0.00303193 -0.00781641 -0.115109
-0.00299519 -0.00784346 -0.115348
-0.00291232 -0.00787536 -0.115646
-0.00274506 -0.00790231 -0.115977
-0.00244103 -0.00790253 -0.116271
-0.00193755 -0.00783598 -0.116367
-0.0011783 -0.00763825 -0.115873
-0.00016444 -0.00721429 -0.113768
0.000920999 -0.00639841 -0.107394
0.0014933 -0.00471286 -0.0901645
0.000746652 -0.001069 -0.0472859
-0.00111917 0.00355328 -0.0542641
-0.00200838 0.00107481 -0.101636
-0.00241585 -0.00021184 -0.120034
-0.00252808 -0.000626368 -0.126569
-0.00252193 -0.000750103 -0.12866
-0.00248869 -0.000782995 -0.129247
-0.00246284 -0.000791082 -0.129402
-0.00245244 -0.000797533 -0.129474
-0.00245586 -0.000811678 -0.129568
-0.00246629 -0.000838864 -0.129714
-0.00247221 -0.000884135 -0.129921
-0.00245445 -0.000951488 -0.13019
-0.00238227 -0.00104167 -0.130508
-0.00220874 -0.0011473 -0.130821
-0.00186885 -0.00124563 -0.130984
-0.00129007 -0.0012874 -0.130587
-0.000437865 -0.0011767 -0.12851
0.000555857 -0.000703664 -0.121756
0.00115582 0.000679549 -0.102824
0.000577909 0.00328035 -0.0545743
-0.000663464 0.00892011 -0.0578198
-0.00114404 0.00861529 -0.106
-0.00131961 0.00803491 -0.123838
-0.00133198 0.00797563 -0.129864
-0.00129742 0.00802332 -0.131685
-0.00126796 0.0080657 -0.132159
-0.00125923 0.00808911 -0.132271
-0.00127275 0.0080957 -0.132328
-0.0013062 0.00808607 -0.132415
-0.00135642 0.0080573 -0.132556
-0.00141841 0.00800262 -0.132761
-0.00148319 0.00791228 -0.133042
-0.00153328 0.00777523 -0.133401
-0.00153713 0.00758152 -0.133814
-0.00144249 0.0073286 -0.134173
-0.00117674 0.00703307 -0.134116
-0.000675091 0.006762 -0.132554
1.4601e-05 0.00672978 -0.126458
0.00052466 0.00749451 -0.107984
0.00026233 0.00837479 -0.0584891
0.000129139 0.0139264 -0.0537977
0.000279843 0.0163908 -0.0936524
0.000410531 0.0167803 -0.106714
0.000499168 0.017139 -0.110574
0.000539902 0.0173627 -0.111543
0.000539673 0.0174755 -0.111719
0.000507407 0.0175278 -0.111739
0.000449093 0.017548 -0.111773
0.000367588 0.0175469 -0.111859
0.000262866 0.0175243 -0.112007
0.000133399 0.0174733 -0.112228
-2.23758e-05 0.0173812 -0.112538
-0.00020388 0.0172294 -0.11296
-0.000403543 0.0169943 -0.113506
-0.000600083 0.0166471 -0.114137
-0.000750031 0.0161614 -0.114632
-0.000789712 0.0155425 -0.114202
-0.000674998 0.0149357 -0.110451
-0.00046197 0.0147703 -0.0966482
-0.000230985 0.0132766 -0.0549643
0.00128353 0.0168024 -0.0294936
0.00220721 0.0221219 -0.0416466
0.00262155 0.0235303 -0.0433859
0.00274178 0.0242417 -0.0431914
0.00272051 0.0245866 -0.0428199
0.00263288 0.0247419 -0.0425819
0.00251077 0.0248119 -0.0424833
0.00236631 0.0248435 -0.0424869
0.00220206 0.0248531 -0.0425664
0.00201607 0.0248431 -0.042714
0.00180249 0.0248078 -0.0429359
0.00155156 0.0247352 -0.0432509
0.00124948 0.024606 -0.0436907
0.000877352 0.0243912 -0.0442987
0.000413208 0.0240479 -0.0451204
-0.000162432 0.0235161 -0.0461586
-0.000849365 0.0227305 -0.0472453
-0.00156912 0.0216944 -0.0477007
-0.00194194 0.0204871 -0.0452329
-0.000970972 0.0162661 -0.031015
0.00259371 0.0150534 0.0612563
0.00411943 0.0215544 0.112967
0.00456588 0.0233033 0.128435
0.00451317 0.0240354 0.132966
0.00428379 0.0243597 0.134407
0.00400423 0.0245012 0.134901
0.0037159 0.0245663 0.135061
0.00342958 0.0245992 0.13508
0.00314538 0.0246148 0.135021
0.00285898 0.0246162 0.134904
0.00256237 0.0246003 0.134726
0.00224252 0.0245587 0.134476
0.00187751 0.0244777 0.134128
0.00143122 0.0243352 0.133633
0.000844519 0.0240947 0.132902
2.39799e-05 0.0236984 0.131757
-0.00115362 0.0230624 0.1297
-0.00270958 0.0220944 0.124894
-0.0038819 0.0204883 0.109914
-0.00194095 0.0147219 0.0597693
0.00271366 0.0075267 0.390062
0.00387246 0.0107772 0.530719
0.00384708 0.0116516 0.555362
0.00342395 0.0120177 0.560133
0.00295536 0.0121799 0.561262
0.00253922 0.0122506 0.561589
0.0021862 0.0122832 0.561689
0.00188563 0.0122996 0.561703
0.00162501 0.0123074 0.561673
0.00139317 0.0123081 0.561609
0.00117928 0.0123001 0.561514
0.000970903 0.0122793 0.561384
0.000749312 0.0122389 0.56121
0.000482842 0.0121676 0.560968
0.000114299 0.0120474 0.560605
-0.000461938 0.0118492 0.55998
-0.00142134 0.0115312 0.558569
-0.00289808 0.0110472 0.553686
-0.0042067 0.0102442 0.52924
-0.00210335 0.00736094 0.388973
6.37613e-05 5.10684e-05 0.00248026
0.00012761 8.91114e-05 0.00435015
0.000151434 0.000104183 0.00489452
0.000144086 0.000109129 0.00508275
0.000116725 0.000109659 0.00515528
7.6833e-05 0.000107927 0.00517393
2.91912e-05 0.00010449 0.00515523
-2.25662e-05 9.94841e-05 0.00510457
-7.51529e-05 9.30943e-05 0.00502465
-0.000125277 8.56573e-05 0.00491823
-0.000169732 7.769e-05 0.00478954
-0.000205614 6.98965e-05 0.00464523
-0.000230821 6.31644e-05 0.00449498
-0.0002448 5.83995e-05 0.00435098
-0.000249054 5.64534e-05 0.00422675
-0.000246645 5.75524e-05 0.00413381
-0.000241364 6.09504e-05 0.0040719
-0.000233081 6.51e-05 0.00399288
-0.000210264 6.86696e-05 0.00366529
-0.000105132 6.79533e-05 0.00215233
0.000103835 4.05375e-05 0.0046485
0.000192574 8.76016e-05 0.00829182
0.000228423 0.000107872 0.009435
0.000224643 0.000113564 0.00982515
0.000194236 0.000113022 0.00996541
0.000145223 0.000108918 0.00999482
8.27082e-05 0.00010143 0.00995027
1.09388e-05 9.04468e-05 0.00984303
-6.58202e-05 7.61944e-05 0.00967879
-0.000142891 5.94323e-05 0.00946334
-0.000215266 4.14179e-05 0.00920519
-0.000277953 2.39253e-05 0.00891729
-0.000326811 9.19881e-06 0.00861808
-0.000359497 -2.85928e-07 0.00833105
-0.000376792 -2.37932e-06 0.00808249
-0.000382478 3.92391e-06 0.0078952
-0.000382151 1.71913e-05 0.00776616
-0.000376534 3.3296e-05 0.00759012
-0.000341778 4.74986e-05 0.00689759
-0.000170889 5.23352e-05 0.00401492
0.000118446 -0.000146978 0.00565654
0.000212877 -0.000145772 0.0099304
0.000248182 -0.000139091 0.0112658
0.000241466 -0.000141784 0.011726
0.000206601 -0.000147254 0.0118956
0.000151303 -0.000154843 0.011933
8.04104e-05 -0.00016623 0.0118779
-1.8354e-06 -0.00018254 0.0117419
-9.0761e-05 -0.000203717 0.0115309
-0.000180934 -0.00022873 0.0112514
-0.00026622 -0.000255565 0.0109137
-0.000340181 -0.000281226 0.0105335
-0.000397053 -0.000301757 0.0101341
-0.000433119 -0.000312739 0.00974643
-0.000448364 -0.000310132 0.00940666
-0.000447364 -0.000291939 0.00914946
-0.000438256 -0.000259824 0.00898277
-0.000424859 -0.00022083 0.00879841
-0.000382051 -0.000184263 0.00806576
-0.000191026 -0.000137324 0.00481849
0.000113165 -0.000573942 0.00621975
0.000197477 -0.000699484 0.0105091
0.000223701 -0.000730484 0.0117804
0.000210296 -0.000753199 0.0122258
0.000169792 -0.000768767 0.012403
0.000108325 -0.000781558 0.0124478
2.99132e-05 -0.000796686 0.0123894
-6.12472e-05 -0.000817094 0.012235
-0.000160146 -0.000843403 0.0119895
-0.000260522 -0.000874444 0.0116592
-0.000354914 -0.000907447 0.0112546
-0.000435116 -0.00093807 0.0107932
-0.00049343 -0.000960526 0.0103022
-0.000524337 -0.000967973 0.00981916
-0.000526956 -0.000954024 0.00939108
-0.000506388 -0.000914912 0.0090682
-0.000474186 -0.000852728 0.00888259
-0.00044041 -0.000777526 0.0087636
-0.000386361 -0.000701981 0.00822446
-0.000193181 -0.000550382 0.00519054
8.62235e-05 -0.00128272 0.00630427
0.000142064 -0.0016431 0.0100668
0.000149493 -0.0017422 0.0110546
0.000125805 -0.00179906 0.0114107
7.92813e-05 -0.00183122 0.0115751
1.28936e-05 -0.0018514 0.011625
-7.09723e-05 -0.00187018 0.0115664
-0.000168651 -0.00189327 0.0113988
-0.000274841 -0.00192243 0.0111246
-0.000382378 -0.00195656 0.0107491
-0.000482296 -0.00199224 0.0102827
-0.000564415 -0.00202369 0.0097439
-0.000618507 -0.00204297 0.00916345
-0.000636759 -0.00204056 0.00858601
-0.000616755 -0.00200713 0.00807035
-0.00056439 -0.00193663 0.00768677
-0.000495116 -0.00183085 0.00750332
-0.000428302 -0.00170344 0.00752171
-0.000359177 -0.00156664 0.00738763
-0.000179588 -0.00122339 0.00509343
3.38608e-05 -0.00229265 0.00567151
3.93788e-05 -0.00302077 0.00823358
1.63054e-05 -0.00322557 0.00868079
-2.20082e-05 -0.00333325 0.00885837
-7.47101e-05 -0.00338965 0.00898218
-0.00014418 -0.00342011 0.0090308
-0.000230597 -0.00344269 0.00897353
-0.000331312 -0.00346711 0.00879755
-0.000440928 -0.00349672 0.00850096
-0.000551415 -0.00353074 0.00808751
-0.000652168 -0.00356513 0.00756667
-0.000730674 -0.00359275 0.0069577
-0.000773788 -0.00360325 0.00629457
-0.000770737 -0.00358396 0.00562927
-0.000716971 -0.00352197 0.00503385
-0.000618646 -0.00340815 0.0046025
-0.000496484 -0.00324377 0.00445239
-0.000382171 -0.00304517 0.00469498
-0.000293915 -0.00281834 0.00521168
-0.000146957 -0.0021739 0.00430445
-4.82909e-05 -0.00358825 0.00401285
-0.000118817 -0.00483442 0.00449387
-0.000186086 -0.00518901 0.00407351
-0.000244042 -0.0053662 0.00395642
-0.000303192 -0.00545535 0.00400075
-0.000373426 -0.00549937 0.0040375
-0.00045889 -0.00552624 0.00398224
-0.000558384 -0.00555073 0.00380428
-0.000666655 -0.0055784 0.00349593
-0.000774844 -0.005609 0.00305807
-0.000870713 -0.00563811 0.00249864
-0.000939049 -0.00565715 0.00183688
-0.000963349 -0.00565329 0.00110922
-0.000929074 -0.00561016 0.000374553
-0.000828694 -0.00551064 -0.000281098
-0.000668518 -0.00534152 -0.0007352
-0.000474792 -0.0051026 -0.000807557
-0.000295882 -0.00481212 -0.000232615
-0.000183519 -0.00446021 0.00123347
-9.17594e-05 -0.00338801 0.0025379
-0.000163995 -0.00510254 0.0010132
-0.000339015 -0.00701888 -0.00166801
-0.00046541 -0.00757014 -0.00335304
-0.000548359 -0.0078355 -0.00390948
-0.00061401 -0.00796564 -0.00399597
-0.000682381 -0.00802641 -0.00398701
-0.000762769 -0.00805817 -0.00404125
-0.000856071 -0.00808174 -0.00421423
-0.000957402 -0.0081054 -0.00452173
-0.00105731 -0.00812978 -0.00496666
-0.00114183 -0.00815019 -0.00554345
-0.00119292 -0.00815676 -0.00623363
-0.00119011 -0.00813416 -0.00699919
-0.00111448 -0.00806207 -0.00777497
-0.000954429 -0.00791805 -0.0084603
-0.000715537 -0.00768393 -0.00890011
-0.000430376 -0.00735607 -0.00883456
-0.000167592 -0.00695271 -0.00779288
-2.44507e-05 -0.00643632 -0.00501814
-1.22253e-05 -0.00480501 -0.000498095
-0.000312907 -0.00669956 -0.00360054
-0.000620686 -0.0094169 -0.0106914
-0.000820571 -0.0102092 -0.0141025
-0.000933277 -0.0105784 -0.0152707
-0.00100501 -0.0107557 -0.0155515
-0.00106864 -0.0108355 -0.0155916
-0.00113975 -0.0108726 -0.0156481
-0.00122193 -0.0108947 -0.0158098
-0.00131096 -0.010913 -0.0161034
-0.00139696 -0.0109295 -0.016536
-0.00146435 -0.0109394 -0.017105
-0.00149219 -0.0109318 -0.0177937
-0.0014556 -0.010889 -0.0185631
-0.00133009 -0.0107866 -0.0193427
-0.00109893 -0.0105962 -0.020017
-0.000765303 -0.0102928 -0.0203936
-0.00036828 -0.00986711 -0.0201148
-8.86215e-07 -0.00933307 -0.0184463
0.000180855 -0.00861094 -0.0139483