# vtk DataFile Version 2.0 
Visualization 
ASCII 
DATASET STRUCTURED_GRID 
DIMENSIONS 21 21 11
POINTS 4851 float
-0.1 -0.1 0.9
0 -0.1 0.9
0.1 -0.1 0.9
0.2 -0.1 0.9
0.3 -0.1 0.9
0.4 -0.1 0.9
0.5 -0.1 0.9
0.6 -0.1 0.9
0.7 -0.1 0.9
0.8 -0.1 0.9
0.9 -0.1 0.9
1 -0.1 0.9
1.1 -0.1 0.9
1.2 -0.1 0.9
1.3 -0.1 0.9
1.4 -0.1 0.9
1.5 -0.1 0.9
1.6 -0.1 0.9
1.7 -0.1 0.9
1.8 -0.1 0.9
1.9 -0.1 0.9
-0.1 0 0.9
0 0 0.9
0.1 0 0.9
0.2 0 0.9
0.3 0 0.9
0.4 0 0.9
0.5 0 0.9
0.6 0 0.9
0.7 0 0.9
0.8 0 0.9
0.9 0 0.9
1 0 0.9
1.1 0 0.9
1.2 0 0.9
1.3 0 0.9
1.4 0 0.9
1.5 0 0.9
1.6 0 0.9
1.7 0 0.9
1.8 0 0.9
1.9 0 0.9
-0.1 0.1 0.9
0 0.1 0.9
0.1 0.1 0.9
0.2 0.1 0.9
0.3 0.1 0.9
0.4 0.1 0.9
0.5 0.1 0.9
0.6 0.1 0.9
0.7 0.1 0.9
0.8 0.1 0.9
0.9 0.1 0.9
1 0.1 0.9
1.1 0.1 0.9
1.2 0.1 0.9
1.3 0.1 0.9
1.4 0.1 0.9
1.5 0.1 0.9
1.6 0.1 0.9
1.7 0.1 0.9
1.8 0.1 0.9
1.9 0.1 0.9
-0.1 0.2 0.9
0 0.2 0.9
0.1 0.2 0.9
0.2 0.2 0.9
0.3 0.2 0.9
0.4 0.2 0.9
0.5 0.2 0.9
0.6 0.2 0.9
0.7 0.2 0.9
0.8 0.2 0.9
0.9 0.2 0.9
1 0.2 0.9
1.1 0.2 0.9
1.2 0.2 0.9
1.3 0.2 0.9
1.4 0.2 0.9
1.5 0.2 0.9
1.6 0.2 0.9
1.7 0.2 0.9
1.8 0.2 0.9
1.9 0.2 0.9
-0.1 0.3 0.9
0 0.3 0.9
0.1 0.3 0.9
0.2 0.3 0.9
0.3 0.3 0.9
0.4 0.3 0.9
0.5 0.3 0.9
0.6 0.3 0.9
0.7 0.3 0.9
0.8 0.3 0.9
0.9 0.3 0.9
1 0.3 0.9
1.1 0.3 0.9
1.2 0.3 0.9
1.3 0.3 0.9
1.4 0.3 0.9
1.5 0.3 0.9
1.6 0.3 0.9
1.7 0.3 0.9
1.8 0.3 0.9
1.9 0.3 0.9
-0.1 0.4 0.9
0 0.4 0.9
0.1 0.4 0.9
0.2 0.4 0.9
0.3 0.4 0.9
0.4 0.4 0.9
0.5 0.4 0.9
0.6 0.4 0.9
0.7 0.4 0.9
0.8 0.4 0.9
0.9 0.4 0.9
1 0.4 0.9
1.1 0.4 0.9
1.2 0.4 0.9
1.3 0.4 0.9
1.4 0.4 0.9
1.5 0.4 0.9
1.6 0.4 0.9
1.7 0.4 0.9
1.8 0.4 0.9
1.9 0.4 0.9
-0.1 0.5 0.9
0 0.5 0.9
0.1 0.5 0.9
0.2 0.5 0.9
0.3 0.5 0.9
0.4 0.5 0.9
0.5 0.5 0.9
0.6 0.5 0.9
0.7 0.5 0.9
0.8 0.5 0.9
0.9 0.5 0.9
1 0.5 0.9
1.1 0.5 0.9
1.2 0.5 0.9
1.3 0.5 0.9
1.4 0.5 0.9
1.5 0.5 0.9
1.6 0.5 0.9
1.7 0.5 0.9
1.8 0.5 0.9
1.9 0.5 0.9
-0.1 0.6 0.9
0 0.6 0.9
0.1 0.6 0.9
0.2 0.6 0.9
0.3 0.6 0.9
0.4 0.6 0.9
0.5 0.6 0.9
0.6 0.6 0.9
0.7 0.6 0.9
0.8 0.6 0.9
0.9 0.6 0.9
1 0.6 0.9
1.1 0.6 0.9
1.2 0.6 0.9
1.3 0.6 0.9
1.4 0.6 0.9
1.5 0.6 0.9
1.6 0.6 0.9
1.7 0.6 0.9
1.8 0.6 0.9
1.9 0.6 0.9
-0.1 0.7 0.9
0 0.7 0.9
0.1 0.7 0.9
0.2 0.7 0.9
0.3 0.7 0.9
0.4 0.7 0.9
0.5 0.7 0.9
0.6 0.7 0.9
0.7 0.7 0.9
0.8 0.7 0.9
0.9 0.7 0.9
1 0.7 0.9
1.1 0.7 0.9
1.2 0.7 0.9
1.3 0.7 0.9
1.4 0.7 0.9
1.5 0.7 0.9
1.6 0.7 0.9
1.7 0.7 0.9
1.8 0.7 0.9
1.9 0.7 0.9
-0.1 0.8 0.9
0 0.8 0.9
0.1 0.8 0.9
0.2 0.8 0.9
0.3 0.8 0.9
0.4 0.8 0.9
0.5 0.8 0.9
0.6 0.8 0.9
0.7 0.8 0.9
0.8 0.8 0.9
0.9 0.8 0.9
1 0.8 0.9
1.1 0.8 0.9
1.2 0.8 0.9
1.3 0.8 0.9
1.4 0.8 0.9
1.5 0.8 0.9
1.6 0.8 0.9
1.7 0.8 0.9
1.8 0.8 0.9
1.9 0.8 0.9
-0.1 0.9 0.9
0 0.9 0.9
0.1 0.9 0.9
0.2 0.9 0.9
0.3 0.9 0.9
0.4 0.9 0.9
0.5 0.9 0.9
0.6 0.9 0.9
0.7 0.9 0.9
0.8 0.9 0.9
0.9 0.9 0.9
1 0.9 0.9
1.1 0.9 0.9
1.2 0.9 0.9
1.3 0.9 0.9
1.4 0.9 0.9
1.5 0.9 0.9
1.6 0.9 0.9
1.7 0.9 0.9
1.8 0.9 0.9
1.9 0.9 0.9
-0.1 1 0.9
0 1 0.9
0.1 1 0.9
0.2 1 0.9
0.3 1 0.9
0.4 1 0.9
0.5 1 0.9
0.6 1 0.9
0.7 1 0.9
0.8 1 0.9
0.9 1 0.9
1 1 0.9
1.1 1 0.9
1.2 1 0.9
1.3 1 0.9
1.4 1 0.9
1.5 1 0.9
1.6 1 0.9
1.7 1 0.9
1.8 1 0.9
1.9 1 0.9
-0.1 1.1 0.9
0 1.1 0.9
0.1 1.1 0.9
0.2 1.1 0.9
0.3 1.1 0.9
0.4 1.1 0.9
0.5 1.1 0.9
0.6 1.1 0.9
0.7 1.1 0.9
0.8 1.1 0.9
0.9 1.1 0.9
1 1.1 0.9
1.1 1.1 0.9
1.2 1.1 0.9
1.3 1.1 0.9
1.4 1.1 0.9
1.5 1.1 0.9
1.6 1.1 0.9
1.7 1.1 0.9
1.8 1.1 0.9
1.9 1.1 0.9
-0.1 1.2 0.9
0 1.2 0.9
0.1 1.2 0.9
0.2 1.2 0.9
0.3 1.2 0.9
0.4 1.2 0.9
0.5 1.2 0.9
0.6 1.2 0.9
0.7 1.2 0.9
0.8 1.2 0.9
0.9 1.2 0.9
1 1.2 0.9
1.1 1.2 0.9
1.2 1.2 0.9
1.3 1.2 0.9
1.4 1.2 0.9
1.5 1.2 0.9
1.6 1.2 0.9
1.7 1.2 0.9
1.8 1.2 0.9
1.9 1.2 0.9
-0.1 1.3 0.9
0 1.3 0.9
0.1 1.3 0.9
0.2 1.3 0.9
0.3 1.3 0.9
0.4 1.3 0.9
0.5 1.3 0.9
0.6 1.3 0.9
0.7 1.3 0.9
0.8 1.3 0.9
0.9 1.3 0.9
1 1.3 0.9
1.1 1.3 0.9
1.2 1.3 0.9
1.3 1.3 0.9
1.4 1.3 0.9
1.5 1.3 0.9
1.6 1.3 0.9
1.7 1.3 0.9
1.8 1.3 0.9
1.9 1.3 0.9
-0.1 1.4 0.9
0 1.4 0.9
0.1 1.4 0.9
0.2 1.4 0.9
0.3 1.4 0.9
0.4 1.4 0.9
0.5 1.4 0.9
0.6 1.4 0.9
0.7 1.4 0.9
0.8 1.4 0.9
0.9 1.4 0.9
1 1.4 0.9
1.1 1.4 0.9
1.2 1.4 0.9
1.3 1.4 0.9
1.4 1.4 0.9
1.5 1.4 0.9
1.6 1.4 0.9
1.7 1.4 0.9
1.8 1.4 0.9
1.9 1.4 0.9
-0.1 1.5 0.9
0 1.5 0.9
0.1 1.5 0.9
0.2 1.5 0.9
0.3 1.5 0.9
0.4 1.5 0.9
0.5 1.5 0.9
0.6 1.5 0.9
0.7 1.5 0.9
0.8 1.5 0.9
0.9 1.5 0.9
1 1.5 0.9
1.1 1.5 0.9
1.2 1.5 0.9
1.3 1.5 0.9
1.4 1.5 0.9
1.5 1.5 0.9
1.6 1.5 0.9
1.7 1.5 0.9
1.8 1.5 0.9
1.9 1.5 0.9
-0.1 1.6 0.9
0 1.6 0.9
0.1 1.6 0.9
0.2 1.6 0.9
0.3 1.6 0.9
0.4 1.6 0.9
0.5 1.6 0.9
0.6 1.6 0.9
0.7 1.6 0.9
0.8 1.6 0.9
0.9 1.6 0.9
1 1.6 0.9
1.1 1.6 0.9
1.2 1.6 0.9
1.3 1.6 0.9
1.4 1.6 0.9
1.5 1.6 0.9
1.6 1.6 0.9
1.7 1.6 0.9
1.8 1.6 0.9
1.9 1.6 0.9
-0.1 1.7 0.9
0 1.7 0.9
0.1 1.7 0.9
0.2 1.7 0.9
0.3 1.7 0.9
0.4 1.7 0.9
0.5 1.7 0.9
0.6 1.7 0.9
0.7 1.7 0.9
0.8 1.7 0.9
0.9 1.7 0.9
1 1.7 0.9
1.1 1.7 0.9
1.2 1.7 0.9
1.3 1.7 0.9
1.4 1.7 0.9
1.5 1.7 0.9
1.6 1.7 0.9
1.7 1.7 0.9
1.8 1.7 0.9
1.9 1.7 0.9
-0.1 1.8 0.9
0 1.8 0.9
0.1 1.8 0.9
0.2 1.8 0.9
0.3 1.8 0.9
0.4 1.8 0.9
0.5 1.8 0.9
0.6 1.8 0.9
0.7 1.8 0.9
0.8 1.8 0.9
0.9 1.8 0.9
1 1.8 0.9
1.1 1.8 0.9
1.2 1.8 0.9
1.3 1.8 0.9
1.4 1.8 0.9
1.5 1.8 0.9
1.6 1.8 0.9
1.7 1.8 0.9
1.8 1.8 0.9
1.9 1.8 0.9
-0.1 1.9 0.9
0 1.9 0.9
0.1 1.9 0.9
0.2 1.9 0.9
0.3 1.9 0.9
0.4 1.9 0.9
0.5 1.9 0.9
0.6 1.9 0.9
0.7 1.9 0.9
0.8 1.9 0.9
0.9 1.9 0.9
1 1.9 0.9
1.1 1.9 0.9
1.2 1.9 0.9
1.3 1.9 0.9
1.4 1.9 0.9
1.5 1.9 0.9
1.6 1.9 0.9
1.7 1.9 0.9
1.8 1.9 0.9
1.9 1.9 0.9
-0.1 -0.1 1
0 -0.1 1
0.1 -0.1 1
0.2 -0.1 1
0.3 -0.1 1
0.4 -0.1 1
0.5 -0.1 1
0.6 -0.1 1
0.7 -0.1 1
0.8 -0.1 1
0.9 -0.1 1
1 -0.1 1
1.1 -0.1 1
1.2 -0.1 1
1.3 -0.1 1
1.4 -0.1 1
1.5 -0.1 1
1.6 -0.1 1
1.7 -0.1 1
1.8 -0.1 1
1.9 -0.1 1
-0.1 0 1
0 0 1
0.1 0 1
0.2 0 1
0.3 0 1
0.4 0 1
0.5 0 1
0.6 0 1
0.7 0 1
0.8 0 1
0.9 0 1
1 0 1
1.1 0 1
1.2 0 1
1.3 0 1
1.4 0 1
1.5 0 1
1.6 0 1
1.7 0 1
1.8 0 1
1.9 0 1
-0.1 0.1 1
0 0.1 1
0.1 0.1 1
0.2 0.1 1
0.3 0.1 1
0.4 0.1 1
0.5 0.1 1
0.6 0.1 1
0.7 0.1 1
0.8 0.1 1
0.9 0.1 1
1 0.1 1
1.1 0.1 1
1.2 0.1 1
1.3 0.1 1
1.4 0.1 1
1.5 0.1 1
1.6 0.1 1
1.7 0.1 1
1.8 0.1 1
1.9 0.1 1
-0.1 0.2 1
0 0.2 1
0.1 0.2 1
0.2 0.2 1
0.3 0.2 1
0.4 0.2 1
0.5 0.2 1
0.6 0.2 1
0.7 0.2 1
0.8 0.2 1
0.9 0.2 1
1 0.2 1
1.1 0.2 1
1.2 0.2 1
1.3 0.2 1
1.4 0.2 1
1.5 0.2 1
1.6 0.2 1
1.7 0.2 1
1.8 0.2 1
1.9 0.2 1
-0.1 0.3 1
0 0.3 1
0.1 0.3 1
0.2 0.3 1
0.3 0.3 1
0.4 0.3 1
0.5 0.3 1
0.6 0.3 1
0.7 0.3 1
0.8 0.3 1
0.9 0.3 1
1 0.3 1
1.1 0.3 1
1.2 0.3 1
1.3 0.3 1
1.4 0.3 1
1.5 0.3 1
1.6 0.3 1
1.7 0.3 1
1.8 0.3 1
1.9 0.3 1
-0.1 0.4 1
0 0.4 1
0.1 0.4 1
0.2 0.4 1
0.3 0.4 1
0.4 0.4 1
0.5 0.4 1
0.6 0.4 1
0.7 0.4 1
0.8 0.4 1
0.9 0.4 1
1 0.4 1
1.1 0.4 1
1.2 0.4 1
1.3 0.4 1
1.4 0.4 1
1.5 0.4 1
1.6 0.4 1
1.7 0.4 1
1.8 0.4 1
1.9 0.4 1
-0.1 0.5 1
0 0.5 1
0.1 0.5 1
0.2 0.5 1
0.3 0.5 1
0.4 0.5 1
0.5 0.5 1
0.6 0.5 1
0.7 0.5 1
0.8 0.5 1
0.9 0.5 1
1 0.5 1
1.1 0.5 1
1.2 0.5 1
1.3 0.5 1
1.4 0.5 1
1.5 0.5 1
1.6 0.5 1
1.7 0.5 1
1.8 0.5 1
1.9 0.5 1
-0.1 0.6 1
0 0.6 1
0.1 0.6 1
0.2 0.6 1
0.3 0.6 1
0.4 0.6 1
0.5 0.6 1
0.6 0.6 1
0.7 0.6 1
0.8 0.6 1
0.9 0.6 1
1 0.6 1
1.1 0.6 1
1.2 0.6 1
1.3 0.6 1
1.4 0.6 1
1.5 0.6 1
1.6 0.6 1
1.7 0.6 1
1.8 0.6 1
1.9 0.6 1
-0.1 0.7 1
0 0.7 1
0.1 0.7 1
0.2 0.7 1
0.3 0.7 1
0.4 0.7 1
0.5 0.7 1
0.6 0.7 1
0.7 0.7 1
0.8 0.7 1
0.9 0.7 1
1 0.7 1
1.1 0.7 1
1.2 0.7 1
1.3 0.7 1
1.4 0.7 1
1.5 0.7 1
1.6 0.7 1
1.7 0.7 1
1.8 0.7 1
1.9 0.7 1
-0.1 0.8 1
0 0.8 1
0.1 0.8 1
0.2 0.8 1
0.3 0.8 1
0.4 0.8 1
0.5 0.8 1
0.6 0.8 1
0.7 0.8 1
0.8 0.8 1
0.9 0.8 1
1 0.8 1
1.1 0.8 1
1.2 0.8 1
1.3 0.8 1
1.4 0.8 1
1.5 0.8 1
1.6 0.8 1
1.7 0.8 1
1.8 0.8 1
1.9 0.8 1
-0.1 0.9 1
0 0.9 1
0.1 0.9 1
0.2 0.9 1
0.3 0.9 1
0.4 0.9 1
0.5 0.9 1
0.6 0.9 1
0.7 0.9 1
0.8 0.9 1
0.9 0.9 1
1 0.9 1
1.1 0.9 1
1.2 0.9 1
1.3 0.9 1
1.4 0.9 1
1.5 0.9 1
1.6 0.9 1
1.7 0.9 1
1.8 0.9 1
1.9 0.9 1
-0.1 1 1
0 1 1
0.1 1 1
0.2 1 1
0.3 1 1
0.4 1 1
0.5 1 1
0.6 1 1
0.7 1 1
0.8 1 1
0.9 1 1
1 1 1
1.1 1 1
1.2 1 1
1.3 1 1
1.4 1 1
1.5 1 1
1.6 1 1
1.7 1 1
1.8 1 1
1.9 1 1
-0.1 1.1 1
0 1.1 1
0.1 1.1 1
0.2 1.1 1
0.3 1.1 1
0.4 1.1 1
0.5 1.1 1
0.6 1.1 1
0.7 1.1 1
0.8 1.1 1
0.9 1.1 1
1 1.1 1
1.1 1.1 1
1.2 1.1 1
1.3 1.1 1
1.4 1.1 1
1.5 1.1 1
1.6 1.1 1
1.7 1.1 1
1.8 1.1 1
1.9 1.1 1
-0.1 1.2 1
0 1.2 1
0.1 1.2 1
0.2 1.2 1
0.3 1.2 1
0.4 1.2 1
0.5 1.2 1
0.6 1.2 1
0.7 1.2 1
0.8 1.2 1
0.9 1.2 1
1 1.2 1
1.1 1.2 1
1.2 1.2 1
1.3 1.2 1
1.4 1.2 1
1.5 1.2 1
1.6 1.2 1
1.7 1.2 1
1.8 1.2 1
1.9 1.2 1
-0.1 1.3 1
0 1.3 1
0.1 1.3 1
0.2 1.3 1
0.3 1.3 1
0.4 1.3 1
0.5 1.3 1
0.6 1.3 1
0.7 1.3 1
0.8 1.3 1
0.9 1.3 1
1 1.3 1
1.1 1.3 1
1.2 1.3 1
1.3 1.3 1
1.4 1.3 1
1.5 1.3 1
1.6 1.3 1
1.7 1.3 1
1.8 1.3 1
1.9 1.3 1
-0.1 1.4 1
0 1.4 1
0.1 1.4 1
0.2 1.4 1
0.3 1.4 1
0.4 1.4 1
0.5 1.4 1
0.6 1.4 1
0.7 1.4 1
0.8 1.4 1
0.9 1.4 1
1 1.4 1
1.1 1.4 1
1.2 1.4 1
1.3 1.4 1
1.4 1.4 1
1.5 1.4 1
1.6 1.4 1
1.7 1.4 1
1.8 1.4 1
1.9 1.4 1
-0.1 1.5 1
0 1.5 1
0.1 1.5 1
0.2 1.5 1
0.3 1.5 1
0.4 1.5 1
0.5 1.5 1
0.6 1.5 1
0.7 1.5 1
0.8 1.5 1
0.9 1.5 1
1 1.5 1
1.1 1.5 1
1.2 1.5 1
1.3 1.5 1
1.4 1.5 1
1.5 1.5 1
1.6 1.5 1
1.7 1.5 1
1.8 1.5 1
1.9 1.5 1
-0.1 1.6 1
0 1.6 1
0.1 1.6 1
0.2 1.6 1
0.3 1.6 1
0.4 1.6 1
0.5 1.6 1
0.6 1.6 1
0.7 1.6 1
0.8 1.6 1
0.9 1.6 1
1 1.6 1
1.1 1.6 1
1.2 1.6 1
1.3 1.6 1
1.4 1.6 1
1.5 1.6 1
1.6 1.6 1
1.7 1.6 1
1.8 1.6 1
1.9 1.6 1
-0.1 1.7 1
0 1.7 1
0.1 1.7 1
0.2 1.7 1
0.3 1.7 1
0.4 1.7 1
0.5 1.7 1
0.6 1.7 1
0.7 1.7 1
0.8 1.7 1
0.9 1.7 1
1 1.7 1
1.1 1.7 1
1.2 1.7 1
1.3 1.7 1
1.4 1.7 1
1.5 1.7 1
1.6 1.7 1
1.7 1.7 1
1.8 1.7 1
1.9 1.7 1
-0.1 1.8 1
0 1.8 1
0.1 1.8 1
0.2 1.8 1
0.3 1.8 1
0.4 1.8 1
0.5 1.8 1
0.6 1.8 1
0.7 1.8 1
0.8 1.8 1
0.9 1.8 1
1 1.8 1
1.1 1.8 1
1.2 1.8 1
1.3 1.8 1
1.4 1.8 1
1.5 1.8 1
1.6 1.8 1
1.7 1.8 1
1.8 1.8 1
1.9 1.8 1
-0.1 1.9 1
0 1.9 1
0.1 1.9 1
0.2 1.9 1
0.3 1.9 1
0.4 1.9 1
0.5 1.9 1
0.6 1.9 1
0.7 1.9 1
0.8 1.9 1
0.9 1.9 1
1 1.9 1
1.1 1.9 1
1.2 1.9 1
1.3 1.9 1
1.4 1.9 1
1.5 1.9 1
1.6 1.9 1
1.7 1.9 1
1.8 1.9 1
1.9 1.9 1
-0.1 -0.1 1.1
0 -0.1 1.1
0.1 -0.1 1.1
0.2 -0.1 1.1
0.3 -0.1 1.1
0.4 -0.1 1.1
0.5 -0.1 1.1
0.6 -0.1 1.1
0.7 -0.1 1.1
0.8 -0.1 1.1
0.9 -0.1 1.1
1 -0.1 1.1
1.1 -0.1 1.1
1.2 -0.1 1.1
1.3 -0.1 1.1
1.4 -0.1 1.1
1.5 -0.1 1.1
1.6 -0.1 1.1
1.7 -0.1 1.1
1.8 -0.1 1.1
1.9 -0.1 1.1
-0.1 0 1.1
0 0 1.1
0.1 0 1.1
0.2 0 1.1
0.3 0 1.1
0.4 0 1.1
0.5 0 1.1
0.6 0 1.1
0.7 0 1.1
0.8 0 1.1
0.9 0 1.1
1 0 1.1
1.1 0 1.1
1.2 0 1.1
1.3 0 1.1
1.4 0 1.1
1.5 0 1.1
[...]
CELL_DATA 4000
VECTORS velocity double 
4.21208e-05 -0.000114051 0.00287532
5.36193e-05 -0.000134954 0.00439768
3.84701e-05 -0.000143312 0.00468076
1.46271e-05 -0.000151096 0.00474584
-1.14468e-05 -0.000155744 0.00476754
-3.8204e-05 -0.00015828 0.0047658
-6.47658e-05 -0.000160035 0.00474099
-9.00008e-05 -0.000161701 0.00469444
-0.000112387 -0.000163439 0.00462831
-0.000130197 -0.000165092 0.00454521
-0.000141793 -0.000166353 0.00444817
-0.000145948 -0.000166822 0.00434139
-0.000142167 -0.000165979 0.0042308
-0.000131235 -0.00016326 0.00412385
-0.000115841 -0.000158057 0.00402962
-0.00010106 -0.000149921 0.0039589
-9.49555e-05 -0.000138854 0.00392376
-0.000107111 -0.000126119 0.00391607
-0.000136079 -0.000114881 0.00377249
-6.80393e-05 -8.7333e-05 0.00251603
5.46419e-05 -0.000415152 0.00438729
5.54213e-05 -0.000537462 0.00671449
2.57372e-05 -0.000577591 0.00708457
-1.08955e-05 -0.000602863 0.00713459
-4.85791e-05 -0.000616384 0.00714932
-8.69687e-05 -0.000623137 0.00714229
-0.00012565 -0.000627118 0.00710181
-0.000163273 -0.000630311 0.00702542
-0.000197655 -0.00063326 0.00691556
-0.00022618 -0.000635692 0.00677625
-0.000246175 -0.000636868 0.00661253
-0.000255278 -0.000635729 0.00643142
-0.000251966 -0.000630957 0.00624261
-0.000236228 -0.000621076 0.00605886
-0.000210616 -0.000604706 0.00589652
-0.000181143 -0.000580737 0.00577861
-0.000158993 -0.000549155 0.00573837
-0.000160216 -0.000512267 0.00578627
-0.000186917 -0.000473748 0.00566856
-9.34583e-05 -0.000366617 0.00383292
3.3038e-05 -0.00089244 0.0045079
8.01281e-06 -0.00118991 0.00660687
-3.87434e-05 -0.00128212 0.00679757
-8.43272e-05 -0.00133299 0.00677379
-0.000126514 -0.00135888 0.00677052
-0.000167611 -0.0013712 0.00676179
-0.000208442 -0.00137769 0.00671851
-0.000247947 -0.00138213 0.00663302
-0.000283733 -0.00138563 0.00650689
-0.00031266 -0.00138781 0.00634427
-0.000331305 -0.00138744 0.00615083
-0.000336461 -0.00138268 0.00593465
-0.000325704 -0.00137123 0.00570714
-0.000298297 -0.00135049 0.00548387
-0.000256254 -0.00131812 0.00528572
-0.000205834 -0.00127243 0.00514501
-0.000159957 -0.00121329 0.00511707
-0.000140239 -0.0011441 0.00525872
-0.000159767 -0.00106511 0.00537752
-7.98836e-05 -0.000820515 0.00387683
-9.4033e-06 -0.00152902 0.00412769
-7.34821e-05 -0.00207779 0.00554416
-0.000142034 -0.00224281 0.00542917
-0.00019667 -0.00232756 0.00530823
-0.000241278 -0.00236956 0.0052856
-0.000281933 -0.00238905 0.0052777
-0.000321216 -0.00239859 0.00523565
-0.00035852 -0.00240427 0.0051465
-0.000391266 -0.00240793 0.00501084
-0.000415771 -0.00240919 0.00483264
-0.000427815 -0.00240617 0.00461769
-0.000423189 -0.00239617 0.00437471
-0.000398444 -0.00237569 0.00411658
-0.000352067 -0.0023409 0.00386132
-0.000285657 -0.00228822 0.00363414
-0.000205742 -0.00221508 0.00347589
-0.000127523 -0.00212145 0.00346497
-7.91613e-05 -0.00201128 0.00371983
-9.09244e-05 -0.0018767 0.00418627
-4.54622e-05 -0.00142942 0.00344234
-6.95308e-05 -0.00231211 0.00326859
-0.00018565 -0.00319397 0.00361269
-0.000281478 -0.0034558 0.00307478
-0.000346104 -0.00358402 0.00282839
-0.000391913 -0.00364648 0.00278098
-0.000430009 -0.0036751 0.00277364
-0.000465242 -0.00368857 0.00273413
-0.000497637 -0.00369575 0.00264342
-0.000524464 -0.00369952 0.00250076
-0.00054133 -0.00369948 0.00230979
-0.000543101 -0.00369317 0.00207636
-0.000524384 -0.00367678 0.00180975
-0.000480494 -0.00364549 0.00152421
-0.000408882 -0.00359386 0.00124047
-0.000310581 -0.0035167 0.000988119
-0.000192664 -0.00341025 0.000817318
-7.28723e-05 -0.00327416 0.000831638
1.20433e-05 -0.00311246 0.00122701
9.31747e-06 -0.00290252 0.002151
4.65873e-06 -0.0021801 0.00254069
-0.000149279 -0.00321569 0.00176743
-0.000332297 -0.00451425 0.000554577
-0.000461825 -0.00489958 -0.000557497
-0.000537612 -0.00508167 -0.000972865
-0.000583366 -0.00516925 -0.00105698
-0.000616701 -0.00520915 -0.00106653
-0.000645328 -0.00522751 -0.00110321
-0.000670111 -0.00523661 -0.00119371
-0.000688191 -0.00524062 -0.00134067
-0.000694417 -0.00523921 -0.001541
-0.000682504 -0.00522939 -0.00178904
-0.000645661 -0.00520606 -0.00207501
-0.000577633 -0.00516273 -0.00238322
-0.000474387 -0.00509205 -0.00269016
-0.000336147 -0.00498669 -0.00296141
-0.00017043 -0.00484118 -0.0031365
1.8263e-06 -0.00465427 -0.00308132
0.000133584 -0.00442901 -0.00250295
0.000142805 -0.00412062 -0.000978077
7.14024e-05 -0.00304775 0.00101268
-0.000251436 -0.00418555 -0.000573032
-0.000517522 -0.00597573 -0.00395075
-0.000687495 -0.00651172 -0.00583163
-0.000775518 -0.00675794 -0.00647598
-0.000819711 -0.00687489 -0.00661491
-0.000845784 -0.00692802 -0.00663179
-0.000865026 -0.00695227 -0.00666621
-0.000879417 -0.00696396 -0.006755
-0.000885999 -0.0069687 -0.00690331
-0.000878842 -0.00696637 -0.00710887
-0.000850186 -0.00695346 -0.00736632
-0.0007915 -0.00692364 -0.00766541
-0.000694615 -0.00686842 -0.0079891
-0.00055343 -0.0067779 -0.00831102
-0.000366856 -0.00664215 -0.00859143
-0.000142483 -0.006453 -0.00875786
9.50977e-05 -0.00620759 -0.00863928
0.000286176 -0.00590609 -0.00781958
0.000312066 -0.00547382 -0.00551033
0.000156033 -0.00398117 -0.0013325
-0.000376871 -0.00512741 -0.00394255
-0.000742518 -0.00746179 -0.0102158
-0.000959431 -0.00817262 -0.0131017
-0.00106029 -0.0084913 -0.0140498
-0.0011011 -0.00864063 -0.0142671
-0.00111732 -0.00870814 -0.0142986
-0.00112447 -0.00873892 -0.0143324
-0.00112584 -0.00875383 -0.0144183
-0.00111843 -0.00876017 -0.0145645
-0.00109558 -0.00875807 -0.01477
-0.0010479 -0.00874351 -0.0150298
-0.000964654 -0.00870903 -0.0153335
-0.000835132 -0.00864406 -0.0156625
-0.000650669 -0.00853567 -0.0159875
-0.000407842 -0.00837024 -0.0162633
-0.000113891 -0.00813602 -0.0164034
0.000203042 -0.00782676 -0.0161921
0.000467902 -0.00743763 -0.0150594
0.0005171 -0.00685592 -0.0117457
0.00025855 -0.00489133 -0.00467946
-0.000523639 -0.00589938 -0.00849316
-0.00100312 -0.00878928 -0.0184882
-0.00127182 -0.00969096 -0.0226486
-0.00138522 -0.010086 -0.0239872
-0.00142042 -0.010268 -0.0243107
-0.00142416 -0.0103496 -0.0243659
-0.00141686 -0.0103869 -0.0244014
-0.00140328 -0.0104055 -0.0244833
-0.0013803 -0.0104144 -0.0246239
-0.00134053 -0.0104144 -0.0248234
-0.00127305 -0.010401 -0.0250773
-0.00116461 -0.0103657 -0.0253753
-0.00100119 -0.0102959 -0.0256972
-0.000770536 -0.0101755 -0.026011
-0.000465979 -0.00998615 -0.0262652
-9.29399e-05 -0.00971083 -0.0263578
0.000316892 -0.00933785 -0.0260189
0.000671032 -0.00885368 -0.0244904
0.000752205 -0.00810057 -0.0199219
0.000376103 -0.00564374 -0.00917621
-0.000685099 -0.00630961 -0.0142917
-0.00128691 -0.00970249 -0.0288747
-0.00160875 -0.0107957 -0.0345962
-0.0017327 -0.0112633 -0.0364184
-0.0017597 -0.0114737 -0.0368781
-0.00174879 -0.0115667 -0.036967
-0.00172543 -0.0116095 -0.037007
-0.00169614 -0.0116316 -0.0370842
-0.00165769 -0.0116442 -0.0372163
-0.00160185 -0.0116486 -0.0374042
-0.00151633 -0.0116404 -0.037644
-0.0013853 -0.0116103 -0.0379255
-0.00119096 -0.0115442 -0.0382276
-0.000916229 -0.0114227 -0.0385151
-0.00054937 -0.0112222 -0.0387305
-9.22917e-05 -0.0109186 -0.0387537
0.00042112 -0.0104913 -0.0382509
0.000879068 -0.00991323 -0.0362369
0.001003 -0.0089756 -0.0301463
0.000501499 -0.00605614 -0.0148903
-0.000848079 -0.00612442 -0.0212629
-0.00156961 -0.00987929 -0.0412466
-0.00193983 -0.0111405 -0.0488044
-0.00206996 -0.0116645 -0.0512
-0.00208595 -0.0118925 -0.0518237
-0.00205917 -0.011991 -0.0519552
-0.00201965 -0.0120364 -0.0520024
-0.00197562 -0.0120615 -0.0520746
-0.00192405 -0.0120786 -0.0521955
-0.0018559 -0.0120899 -0.0523675
-0.00175774 -0.0120916 -0.0525868
-0.00161146 -0.0120746 -0.0528434
-0.00139524 -0.0120242 -0.0531155
-0.00108616 -0.0119184 -0.0533659
-0.000665271 -0.0117283 -0.0535303
-0.000127991 -0.011421 -0.0534681
0.000492275 -0.0109633 -0.0527701
0.00106444 -0.0103071 -0.0501844
0.00124357 -0.00918824 -0.0423102
0.000621784 -0.00590559 -0.0217555
-0.000990978 -0.00509319 -0.0291322
-0.00181176 -0.00895778 -0.0551433
-0.00221591 -0.0103289 -0.0647579
-0.00234427 -0.0108763 -0.0677967
-0.00234631 -0.0111027 -0.068603
-0.00230406 -0.0111965 -0.0687817
-0.00225079 -0.0112398 -0.0688378
-0.00219563 -0.0112662 -0.0689052
-0.00213598 -0.0112881 -0.0690136
-0.00206268 -0.0113083 -0.0691673
-0.00196158 -0.0113246 -0.0693631
-0.00181306 -0.0113293 -0.069591
-0.00159184 -0.0113087 -0.0698301
-0.00126856 -0.0112401 -0.0700415
-0.000815055 -0.0110911 -0.0701552
-0.000216122 -0.0108191 -0.0700072
0.000500297 -0.0103741 -0.0691002
0.00118754 -0.00967803 -0.0658766
0.00143448 -0.00840859 -0.0559996
0.00071724 -0.00495134 -0.0295177
-0.00108216 -0.00299667 -0.0373907
-0.00195512 -0.00659121 -0.0697042
-0.00236511 -0.007968 -0.0814801
-0.00247931 -0.00848467 -0.0851895
-0.00246463 -0.00868062 -0.0861796
-0.00240945 -0.00875572 -0.086402
-0.0023478 -0.00879033 -0.0864652
-0.00228837 -0.00881521 -0.0865278
-0.00222885 -0.00884099 -0.0866241
-0.00216085 -0.00887101 -0.0867602
-0.00207069 -0.00890488 -0.0869339
-0.00193875 -0.00893832 -0.087137
-0.0017377 -0.00896093 -0.0873503
-0.00143273 -0.00895295 -0.0875362
-0.000985026 -0.00888132 -0.0876204
-0.000364568 -0.0086967 -0.0874136
0.000414295 -0.00833013 -0.0863181
0.00119891 -0.00766407 -0.0824357
0.00152313 -0.00631685 -0.0704315
0.000761563 -0.00297959 -0.0377019
-0.00107769 0.000276305 -0.0452969
-0.00191956 -0.00253891 -0.0836319
-0.00228965 -0.00375944 -0.0974659
-0.00237248 -0.00416691 -0.101795
-0.00233949 -0.00429472 -0.10294
-0.00227687 -0.0043345 -0.103192
-0.00221544 -0.00435309 -0.103255
-0.00216179 -0.0043726 -0.103312
-0.0021136 -0.00439999 -0.103398
-0.00206395 -0.0044384 -0.10352
-0.00200154 -0.00448982 -0.103678
-0.00190898 -0.00455454 -0.103868
-0.00175991 -0.00462839 -0.104075
-0.00151691 -0.00469896 -0.104268
-0.00113216 -0.00473924 -0.10437
-0.000557767 -0.0046999 -0.10417
0.000215138 -0.0044973 -0.10296
0.0010468 -0.0039698 -0.0984846
0.00144617 -0.00267935 -0.0844109
0.000723084 0.000127418 -0.0456102
-0.000918415 0.0046293 -0.0518393
-0.0015999 0.00321338 -0.0949712
-0.00186538 0.00237209 -0.110351
-0.00189662 0.00217183 -0.115091
-0.0018468 0.00215333 -0.11631
-0.00178641 0.00216485 -0.11656
-0.00173732 0.0021688 -0.116613
-0.00170223 0.00215852 -0.11666
-0.00167859 0.00213295 -0.116738
-0.00166166 0.00209009 -0.116854
-0.00164424 0.00202556 -0.117009
-0.00161404 0.00193401 -0.117204
-0.0015502 0.00181109 -0.117436
-0.00141861 0.00165755 -0.117682
-0.00116842 0.00148594 -0.117877
-0.000736875 0.00133279 -0.117791
-8.44095e-05 0.00128168 -0.11662
0.000690929 0.00152864 -0.111783
0.00113422 0.00255082 -0.0960811
0.000567111 0.00430095 -0.0522708
-0.000532088 0.00962104 -0.0554138
-0.000875906 0.010274 -0.100114
-0.000959049 0.010086 -0.115559
-0.000921059 0.0101953 -0.120134
-0.000861883 0.0103197 -0.12123
-0.000818664 0.0103924 -0.121417
-0.000797747 0.0104223 -0.12144
-0.000796552 0.0104242 -0.121474
-0.000812007 0.0104047 -0.121546
-0.000842186 0.0103637 -0.12166
-0.000884941 0.0102954 -0.121822
-0.000935766 0.0101899 -0.122041
-0.000983942 0.0100345 -0.122324
-0.00100715 0.0098156 -0.12267
-0.00096382 0.00952444 -0.123035
-0.000789761 0.00916856 -0.123204
-0.000418624 0.00880381 -0.122349
0.00012368 0.00862217 -0.117764
0.000523227 0.00908241 -0.101849
0.000261613 0.00915526 -0.0560881
0.000170206 0.0142822 -0.0520223
0.000366738 0.0175663 -0.0901069
0.000527678 0.0182881 -0.102051
0.000629647 0.0187703 -0.105185
0.000673218 0.0190434 -0.105769
0.00067237 0.0191734 -0.105786
0.000640872 0.0192275 -0.105754
0.00058689 0.0192425 -0.105769
0.000513636 0.0192333 -0.105834
0.000420408 0.0192016 -0.105949
0.000304231 0.0191417 -0.106121
0.000161283 0.0190414 -0.106366
-1.11857e-05 0.0188824 -0.106706
-0.000210297 0.0186397 -0.107166
-0.000420407 0.018282 -0.107744
-0.000602705 0.017778 -0.108304
-0.000693224 0.017124 -0.108198
-0.000638272 0.0164358 -0.105173
-0.000470146 0.0160205 -0.092602
-0.000235073 0.0137917 -0.0529989
0.00123406 0.0169048 -0.028519
0.00211378 0.0228949 -0.0405847
0.0024994 0.0245789 -0.0423876
0.00260015 0.0253778 -0.042154
0.00256459 0.0257518 -0.0417318
0.00246698 0.0259149 -0.0414692
0.00233952 0.0259836 -0.0413596
0.00219435 0.0260098 -0.0413486
0.00203388 0.0260127 -0.0414022
0.00185553 0.0259958 -0.0415104
0.00165288 0.0259546 -0.0416793
0.00141567 0.0258778 -0.0419276
0.00112931 0.0257471 -0.0422872
0.000774415 0.025534 -0.0428042
0.000328642 0.0251952 -0.0435346
-0.000227381 0.0246691 -0.0445051
-0.000892933 0.0238843 -0.0455731
-0.00159091 0.0228109 -0.0460384
-0.00194753 0.0213939 -0.0435612
-0.000973765 0.0165228 -0.0297112
0.00246024 0.0150209 0.0617255
0.00386635 0.0220186 0.112838
0.00424405 0.0239761 0.127858
0.00415832 0.0247653 0.132203
0.00391586 0.0251043 0.133576
0.0036346 0.0252475 0.134046
0.00335189 0.0253096 0.134204
0.00307646 0.0253371 0.134235
0.00280717 0.0253468 0.134201
0.00253888 0.0253425 0.134118
0.00226312 0.0253217 0.133983
0.00196683 0.0252769 0.133782
0.00162916 0.0251953 0.133487
0.0012161 0.0250554 0.13305
0.000672182 0.0248218 0.132382
-9.06616e-05 0.0244368 0.131303
-0.00119176 0.0238132 0.129338
-0.00266038 0.0228305 0.124726
-0.0037786 0.0210606 0.110192
-0.0018893 0.0147842 0.0605294
0.00251553 0.00751047 0.39031
0.00353003 0.0110093 0.530579
0.00345589 0.011988 0.554961
0.00303702 0.0123827 0.559629
0.00259445 0.0125521 0.560723
0.00221169 0.0126238 0.561039
0.00189351 0.0126548 0.561141
0.00162702 0.0126686 0.561164
0.00139878 0.0126734 0.561149
0.00119714 0.0126713 0.561104
0.00101145 0.0126608 0.56103
0.000829807 0.0126384 0.560922
0.000635224 0.0125976 0.560768
0.000399213 0.0125277 0.560543
6.99569e-05 0.0124109 0.560193
-0.000449054 0.0122184 0.559577
-0.00132143 0.0119066 0.558182
-0.00268226 0.0114153 0.55337
-0.00392115 0.0105303 0.529184
-0.00196058 0.00739211 0.389361
3.29865e-05 -6.02922e-05 0.00302592
5.95199e-05 -6.31037e-05 0.00467191
6.04243e-05 -6.49383e-05 0.00497732
4.64153e-05 -6.8248e-05 0.0050487
2.40637e-05 -7.04872e-05 0.00507477
-3.50434e-06 -7.19846e-05 0.00507661
-3.42482e-05 -7.34716e-05 0.0050545
-6.63e-05 -7.53379e-05 0.00500978
-9.76893e-05 -7.76311e-05 0.00494451
-0.000126318 -8.02481e-05 0.00486099
-0.000150099 -8.29303e-05 0.00476189
-0.000167023 -8.5298e-05 0.00465115
-0.000175508 -8.68408e-05 0.0045346
-0.000175053 -8.6917e-05 0.00442001
-0.000166887 -8.48505e-05 0.00431734
-0.000154532 -8.01401e-05 0.00423901
-0.000144187 -7.27048e-05 0.00419908
-0.000141812 -6.34525e-05 0.00418994
-0.000143129 -5.42575e-05 0.00403493
-7.15646e-05 -3.57919e-05 0.00267516
4.92142e-05 -0.000240522 0.00473178
7.63116e-05 -0.000298724 0.00728597
7.27437e-05 -0.000316642 0.0076968
5.29014e-05 -0.000328838 0.00775712
2.32888e-05 -0.00033544 0.00777874
-1.3568e-05 -0.000339087 0.00777705
-5.58112e-05 -0.000342188 0.00773995
-0.000101269 -0.000345926 0.00766488
-0.000147405 -0.000350604 0.00755423
-0.000191253 -0.000355939 0.00741168
-0.000229586 -0.000361334 0.00724182
-0.000259088 -0.000365831 0.00705133
-0.000276775 -0.00036811 0.00684991
-0.000280863 -0.000366513 0.00665082
-0.000271836 -0.000359376 0.00647194
-0.000253469 -0.000345288 0.0063391
-0.000233958 -0.000324097 0.00628947
-0.000223175 -0.000297968 0.00633519
-0.000214899 -0.000270196 0.0061977
-0.00010745 -0.000204879 0.00417239
4.05061e-05 -0.000587214 0.00500823
5.48312e-05 -0.00076045 0.00738291
4.17364e-05 -0.000809964 0.00761677
1.62641e-05 -0.00083717 0.00760424
-1.69823e-05 -0.000850617 0.00760975
-5.70417e-05 -0.000857173 0.00760788
-0.000102811 -0.00086187 0.00756863
-0.000152332 -0.00086711 0.00748427
-0.000202839 -0.000873547 0.00735638
-0.00025097 -0.000880856 0.00718871
-0.000292814 -0.000888 0.00698638
-0.000324181 -0.000893343 0.006757
-0.000341019 -0.00089453 0.00651189
-0.000340569 -0.000888777 0.00626725
-0.000322453 -0.000873103 0.00604581
-0.000290561 -0.000845216 0.00588353
-0.000254656 -0.000804672 0.00584171
-0.000228654 -0.000755028 0.00598194
-0.000212217 -0.00069901 0.00608608
-0.000106108 -0.000540752 0.00436086
1.68872e-05 -0.00112198 0.00481304
7.93915e-06 -0.0014833 0.00654383
-1.92168e-05 -0.00158254 0.00647086
-5.13607e-05 -0.001632 0.00636263
-8.74771e-05 -0.00165542 0.00635158
-0.000129099 -0.00166611 0.00635265
-0.000176247 -0.0016726 0.00631567
-0.000227245 -0.00167902 0.00622775
-0.000279225 -0.00168662 0.00608955
-0.000328337 -0.00169502 0.00590462
-0.000369906 -0.00170269 0.00567807
-0.000398683 -0.00170724 0.00541794
-0.000409511 -0.00170522 0.00513685
-0.000398413 -0.00169237 0.00485351
-0.000364266 -0.00166427 0.00459526
-0.000311038 -0.00161739 0.00440754
-0.000250741 -0.00155122 0.00437671
-0.000202947 -0.00147024 0.0046303
-0.000178434 -0.00137292 0.00509145
-8.92168e-05 -0.00105922 0.00409951
-2.05948e-05 -0.00186303 0.00416737
-6.39343e-05 -0.00250177 0.00485951
-0.000110401 -0.00267344 0.00436024
-0.000150599 -0.00275417 0.00412851
-0.000189079 -0.00279163 0.00409622
-0.000230803 -0.00280806 0.0041005
-0.000277504 -0.00281688 0.00406741
-0.000328002 -0.00282434 0.0039782
-0.000379288 -0.0028325 0.00383232
-0.000426939 -0.00284102 0.00363295
-0.000465441 -0.00284794 0.00338504
-0.000488351 -0.00284995 0.00309696
-0.000489038 -0.00284232 0.00278244
-0.000462153 -0.00281916 0.00246285
-0.000405539 -0.0027742 0.00217032
-0.000323549 -0.00270244 0.00196054
-0.000230678 -0.00260278 0.00194766
-0.000154219 -0.00248064 0.00234167
-0.000120814 -0.0023241 0.0032734
-6.04069e-05 -0.00177638 0.00339822
-7.44358e-05 -0.00281536 0.00289174
-0.000165607 -0.00383507 0.00204789
-0.000237972 -0.00410678 0.000965745
-0.000288131 -0.0042294 0.000566179
-0.000328377 -0.00428561 0.000500987
-0.000368623 -0.00430991 0.000506003
-0.000412725 -0.00432172 0.000477304
-0.00046031 -0.0043302 0.000388657
-0.000508293 -0.00433842 0.000237813
-0.000551693 -0.00434616 2.7342e-05
-0.000583968 -0.00435104 -0.000238287
-0.000597304 -0.00434877 -0.000550524
-0.000583319 -0.00433313 -0.000894408
-0.00053484 -0.00429627 -0.00124587
-0.00044851 -0.00422968 -0.00156758
-0.000328776 -0.00412639 -0.00179239
-0.000193585 -0.00398455 -0.00177266
-7.97576e-05 -0.00380944 -0.00119459
-3.57432e-05 -0.00357107 0.000357897
-1.78716e-05 -0.00269699 0.00208182
-0.000147629 -0.00395779 0.000763049
-0.000302408 -0.00546923 -0.0022513
-0.000408325 -0.00587216 -0.00411965
-0.000470626 -0.00604828 -0.00474914
-0.000512078 -0.00612831 -0.00486557
-0.000548875 -0.00616269 -0.0048648
-0.000587901 -0.00617841 -0.00488958
-0.000629761 -0.00618807 -0.00497595
-0.000671442 -0.00619606 -0.00512854
-0.000707405 -0.0062024 -0.00534569
-0.00072999 -0.00620432 -0.00562345
-0.000729706 -0.00619653 -0.0059533
-0.000696088 -0.00617108 -0.00631925
-0.00061966 -0.00611779 -0.0066945
-0.000495343 -0.00602546 -0.00703619
-0.000327622 -0.00588435 -0.00726377
-0.000138311 -0.00569116 -0.00718911
2.34749e-05 -0.00544956 -0.00636675
8.09133e-05 -0.0051023 -0.00400132
4.04566e-05 -0.00380174 -6.57014e-05
-0.000242129 -0.00522914 -0.00244587
-0.000477926 -0.00733919 -0.00840154
-0.000625749 -0.00790631 -0.0113045
-0.000702484 -0.00814744 -0.0122423
-0.000744431 -0.00825597 -0.0124344
-0.000775727 -0.00830238 -0.0124455
-0.000806993 -0.00832285 -0.0124679
-0.000840186 -0.00833398 -0.0125506
-0.000872442 -0.00834175 -0.0127012
-0.000897716 -0.00834654 -0.0129193
-0.000907122 -0.00834524 -0.0132016
-0.000889241 -0.00833157 -0.0135398
-0.000831066 -0.00829579 -0.0139171
-0.000720361 -0.00822501 -0.0143039
-0.00054946 -0.00810449 -0.0146513
-0.000322469 -0.00792098 -0.0148638
-6.55222e-05 -0.00766825 -0.0147039
0.000157089 -0.00734638 -0.0135621
0.000231621 -0.00685967 -0.0101515
0.00011581 -0.00503342 -0.00326472
-0.000358148 -0.00651431 -0.0069353
-0.000692265 -0.00930855 -0.0167171
-0.000889878 -0.0100702 -0.020941
-0.000982989 -0.0103856 -0.0222793
-0.00102438 -0.0105255 -0.0225771
-0.001048 -0.010585 -0.0226099
-0.00106886 -0.0106107 -0.0226325
-0.00109059 -0.0106237 -0.0227104
-0.0011106 -0.0106316 -0.0228551
-0.00112235 -0.0106353 -0.0230674
-0.00111575 -0.0106316 -0.023345
-0.00107727 -0.0106132 -0.0236799
-0.000990907 -0.0105688 -0.0240544
-0.000840733 -0.0104824 -0.0244364