# vtk DataFile Version 2.0 
Visualization 
ASCII 
DATASET STRUCTURED_GRID 
DIMENSIONS 21 21 11
POINTS 4851 float
-0.1 -0.1 0.9
0 -0.1 0.9
0.1 -0.1 0.9
0.2 -0.1 0.9
0.3 -0.1 0.9
0.4 -0.1 0.9
0.5 -0.1 0.9
0.6 -0.1 0.9
0.7 -0.1 0.9
0.8 -0.1 0.9
0.9 -0.1 0.9
1 -0.1 0.9
1.1 -0.1 0.9
1.2 -0.1 0.9
1.3 -0.1 0.9
1.4 -0.1 0.9
1.5 -0.1 0.9
1.6 -0.1 0.9
1.7 -0.1 0.9
1.8 -0.1 0.9
1.9 -0.1 0.9
-0.1 0 0.9
0 0 0.9
0.1 0 0.9
0.2 0 0.9
0.3 0 0.9
0.4 0 0.9
0.5 0 0.9
0.6 0 0.9
0.7 0 0.9
0.8 0 0.9
0.9 0 0.9
1 0 0.9
1.1 0 0.9
1.2 0 0.9
1.3 0 0.9
1.4 0 0.9
1.5 0 0.9
1.6 0 0.9
1.7 0 0.9
1.8 0 0.9
1.9 0 0.9
-0.1 0.1 0.9
0 0.1 0.9
0.1 0.1 0.9
0.2 0.1 0.9
0.3 0.1 0.9
0.4 0.1 0.9
0.5 0.1 0.9
0.6 0.1 0.9
0.7 0.1 0.9
0.8 0.1 0.9
0.9 0.1 0.9
1 0.1 0.9
1.1 0.1 0.9
1.2 0.1 0.9
1.3 0.1 0.9
1.4 0.1 0.9
1.5 0.1 0.9
1.6 0.1 0.9
1.7 0.1 0.9
1.8 0.1 0.9
1.9 0.1 0.9
-0.1 0.2 0.9
0 0.2 0.9
0.1 0.2 0.9
0.2 0.2 0.9
0.3 0.2 0.9
0.4 0.2 0.9
0.5 0.2 0.9
0.6 0.2 0.9
0.7 0.2 0.9
0.8 0.2 0.9
0.9 0.2 0.9
1 0.2 0.9
1.1 0.2 0.9
1.2 0.2 0.9
1.3 0.2 0.9
1.4 0.2 0.9
1.5 0.2 0.9
1.6 0.2 0.9
1.7 0.2 0.9
1.8 0.2 0.9
1.9 0.2 0.9
-0.1 0.3 0.9
0 0.3 0.9
0.1 0.3 0.9
0.2 0.3 0.9
0.3 0.3 0.9
0.4 0.3 0.9
0.5 0.3 0.9
0.6 0.3 0.9
0.7 0.3 0.9
0.8 0.3 0.9
0.9 0.3 0.9
1 0.3 0.9
1.1 0.3 0.9
1.2 0.3 0.9
1.3 0.3 0.9
1.4 0.3 0.9
1.5 0.3 0.9
1.6 0.3 0.9
1.7 0.3 0.9
1.8 0.3 0.9
1.9 0.3 0.9
-0.1 0.4 0.9
0 0.4 0.9
0.1 0.4 0.9
0.2 0.4 0.9
0.3 0.4 0.9
0.4 0.4 0.9
0.5 0.4 0.9
0.6 0.4 0.9
0.7 0.4 0.9
0.8 0.4 0.9
0.9 0.4 0.9
1 0.4 0.9
1.1 0.4 0.9
1.2 0.4 0.9
1.3 0.4 0.9
1.4 0.4 0.9
1.5 0.4 0.9
1.6 0.4 0.9
1.7 0.4 0.9
1.8 0.4 0.9
1.9 0.4 0.9
-0.1 0.5 0.9
0 0.5 0.9
0.1 0.5 0.9
0.2 0.5 0.9
0.3 0.5 0.9
0.4 0.5 0.9
0.5 0.5 0.9
0.6 0.5 0.9
0.7 0.5 0.9
0.8 0.5 0.9
0.9 0.5 0.9
1 0.5 0.9
1.1 0.5 0.9
1.2 0.5 0.9
1.3 0.5 0.9
1.4 0.5 0.9
1.5 0.5 0.9
1.6 0.5 0.9
1.7 0.5 0.9
1.8 0.5 0.9
1.9 0.5 0.9
-0.1 0.6 0.9
0 0.6 0.9
0.1 0.6 0.9
0.2 0.6 0.9
0.3 0.6 0.9
0.4 0.6 0.9
0.5 0.6 0.9
0.6 0.6 0.9
0.7 0.6 0.9
0.8 0.6 0.9
0.9 0.6 0.9
1 0.6 0.9
1.1 0.6 0.9
1.2 0.6 0.9
1.3 0.6 0.9
1.4 0.6 0.9
1.5 0.6 0.9
1.6 0.6 0.9
1.7 0.6 0.9
1.8 0.6 0.9
1.9 0.6 0.9
-0.1 0.7 0.9
0 0.7 0.9
0.1 0.7 0.9
0.2 0.7 0.9
0.3 0.7 0.9
0.4 0.7 0.9
0.5 0.7 0.9
0.6 0.7 0.9
0.7 0.7 0.9
0.8 0.7 0.9
0.9 0.7 0.9
1 0.7 0.9
1.1 0.7 0.9
1.2 0.7 0.9
1.3 0.7 0.9
1.4 0.7 0.9
1.5 0.7 0.9
1.6 0.7 0.9
1.7 0.7 0.9
1.8 0.7 0.9
1.9 0.7 0.9
-0.1 0.8 0.9
0 0.8 0.9
0.1 0.8 0.9
0.2 0.8 0.9
0.3 0.8 0.9
0.4 0.8 0.9
0.5 0.8 0.9
0.6 0.8 0.9
0.7 0.8 0.9
0.8 0.8 0.9
0.9 0.8 0.9
1 0.8 0.9
1.1 0.8 0.9
1.2 0.8 0.9
1.3 0.8 0.9
1.4 0.8 0.9
1.5 0.8 0.9
1.6 0.8 0.9
1.7 0.8 0.9
1.8 0.8 0.9
1.9 0.8 0.9
-0.1 0.9 0.9
0 0.9 0.9
0.1 0.9 0.9
0.2 0.9 0.9
0.3 0.9 0.9
0.4 0.9 0.9
0.5 0.9 0.9
0.6 0.9 0.9
0.7 0.9 0.9
0.8 0.9 0.9
0.9 0.9 0.9
1 0.9 0.9
1.1 0.9 0.9
1.2 0.9 0.9
1.3 0.9 0.9
1.4 0.9 0.9
1.5 0.9 0.9
1.6 0.9 0.9
1.7 0.9 0.9
1.8 0.9 0.9
1.9 0.9 0.9
-0.1 1 0.9
0 1 0.9
0.1 1 0.9
0.2 1 0.9
0.3 1 0.9
0.4 1 0.9
0.5 1 0.9
0.6 1 0.9
0.7 1 0.9
0.8 1 0.9
0.9 1 0.9
1 1 0.9
1.1 1 0.9
1.2 1 0.9
1.3 1 0.9
1.4 1 0.9
1.5 1 0.9
1.6 1 0.9
1.7 1 0.9
1.8 1 0.9
1.9 1 0.9
-0.1 1.1 0.9
0 1.1 0.9
0.1 1.1 0.9
0.2 1.1 0.9
0.3 1.1 0.9
0.4 1.1 0.9
0.5 1.1 0.9
0.6 1.1 0.9
0.7 1.1 0.9
0.8 1.1 0.9
0.9 1.1 0.9
1 1.1 0.9
1.1 1.1 0.9
1.2 1.1 0.9
1.3 1.1 0.9
1.4 1.1 0.9
1.5 1.1 0.9
1.6 1.1 0.9
1.7 1.1 0.9
1.8 1.1 0.9
1.9 1.1 0.9
-0.1 1.2 0.9
0 1.2 0.9
0.1 1.2 0.9
0.2 1.2 0.9
0.3 1.2 0.9
0.4 1.2 0.9
0.5 1.2 0.9
0.6 1.2 0.9
0.7 1.2 0.9
0.8 1.2 0.9
0.9 1.2 0.9
1 1.2 0.9
1.1 1.2 0.9
1.2 1.2 0.9
1.3 1.2 0.9
1.4 1.2 0.9
1.5 1.2 0.9
1.6 1.2 0.9
1.7 1.2 0.9
1.8 1.2 0.9
1.9 1.2 0.9
-0.1 1.3 0.9
0 1.3 0.9
0.1 1.3 0.9
0.2 1.3 0.9
0.3 1.3 0.9
0.4 1.3 0.9
0.5 1.3 0.9
0.6 1.3 0.9
0.7 1.3 0.9
0.8 1.3 0.9
0.9 1.3 0.9
1 1.3 0.9
1.1 1.3 0.9
1.2 1.3 0.9
1.3 1.3 0.9
1.4 1.3 0.9
1.5 1.3 0.9
1.6 1.3 0.9
1.7 1.3 0.9
1.8 1.3 0.9
1.9 1.3 0.9
-0.1 1.4 0.9
0 1.4 0.9
0.1 1.4 0.9
0.2 1.4 0.9
0.3 1.4 0.9
0.4 1.4 0.9
0.5 1.4 0.9
0.6 1.4 0.9
0.7 1.4 0.9
0.8 1.4 0.9
0.9 1.4 0.9
1 1.4 0.9
1.1 1.4 0.9
1.2 1.4 0.9
1.3 1.4 0.9
1.4 1.4 0.9
1.5 1.4 0.9
1.6 1.4 0.9
1.7 1.4 0.9
1.8 1.4 0.9
1.9 1.4 0.9
-0.1 1.5 0.9
0 1.5 0.9
0.1 1.5 0.9
0.2 1.5 0.9
0.3 1.5 0.9
0.4 1.5 0.9
0.5 1.5 0.9
0.6 1.5 0.9
0.7 1.5 0.9
0.8 1.5 0.9
0.9 1.5 0.9
1 1.5 0.9
1.1 1.5 0.9
1.2 1.5 0.9
1.3 1.5 0.9
1.4 1.5 0.9
1.5 1.5 0.9
1.6 1.5 0.9
1.7 1.5 0.9
1.8 1.5 0.9
1.9 1.5 0.9
-0.1 1.6 0.9
0 1.6 0.9
0.1 1.6 0.9
0.2 1.6 0.9
0.3 1.6 0.9
0.4 1.6 0.9
0.5 1.6 0.9
0.6 1.6 0.9
0.7 1.6 0.9
0.8 1.6 0.9
0.9 1.6 0.9
1 1.6 0.9
1.1 1.6 0.9
1.2 1.6 0.9
1.3 1.6 0.9
1.4 1.6 0.9
1.5 1.6 0.9
1.6 1.6 0.9
1.7 1.6 0.9
1.8 1.6 0.9
1.9 1.6 0.9
-0.1 1.7 0.9
0 1.7 0.9
0.1 1.7 0.9
0.2 1.7 0.9
0.3 1.7 0.9
0.4 1.7 0.9
0.5 1.7 0.9
0.6 1.7 0.9
0.7 1.7 0.9
0.8 1.7 0.9
0.9 1.7 0.9
1 1.7 0.9
1.1 1.7 0.9
1.2 1.7 0.9
1.3 1.7 0.9
1.4 1.7 0.9
1.5 1.7 0.9
1.6 1.7 0.9
1.7 1.7 0.9
1.8 1.7 0.9
1.9 1.7 0.9
-0.1 1.8 0.9
0 1.8 0.9
0.1 1.8 0.9
0.2 1.8 0.9
0.3 1.8 0.9
0.4 1.8 0.9
0.5 1.8 0.9
0.6 1.8 0.9
0.7 1.8 0.9
0.8 1.8 0.9
0.9 1.8 0.9
1 1.8 0.9
1.1 1.8 0.9
1.2 1.8 0.9
1.3 1.8 0.9
1.4 1.8 0.9
1.5 1.8 0.9
1.6 1.8 0.9
1.7 1.8 0.9
1.8 1.8 0.9
1.9 1.8 0.9
-0.1 1.9 0.9
0 1.9 0.9
0.1 1.9 0.9
0.2 1.9 0.9
0.3 1.9 0.9
0.4 1.9 0.9
0.5 1.9 0.9
0.6 1.9 0.9
0.7 1.9 0.9
0.8 1.9 0.9
0.9 1.9 0.9
1 1.9 0.9
1.1 1.9 0.9
1.2 1.9 0.9
1.3 1.9 0.9
1.4 1.9 0.9
1.5 1.9 0.9
1.6 1.9 0.9
1.7 1.9 0.9
1.8 1.9 0.9
1.9 1.9 0.9
-0.1 -0.1 1
0 -0.1 1
0.1 -0.1 1
0.2 -0.1 1
0.3 -0.1 1
0.4 -0.1 1
0.5 -0.1 1
0.6 -0.1 1
0.7 -0.1 1
0.8 -0.1 1
0.9 -0.1 1
1 -0.1 1
1.1 -0.1 1
1.2 -0.1 1
1.3 -0.1 1
1.4 -0.1 1
1.5 -0.1 1
1.6 -0.1 1
1.7 -0.1 1
1.8 -0.1 1
1.9 -0.1 1
-0.1 0 1
0 0 1
0.1 0 1
0.2 0 1
0.3 0 1
0.4 0 1
0.5 0 1
0.6 0 1
0.7 0 1
0.8 0 1
0.9 0 1
1 0 1
1.1 0 1
1.2 0 1
1.3 0 1
1.4 0 1
1.5 0 1
1.6 0 1
1.7 0 1
1.8 0 1
1.9 0 1
-0.1 0.1 1
0 0.1 1
0.1 0.1 1
0.2 0.1 1
0.3 0.1 1
0.4 0.1 1
0.5 0.1 1
0.6 0.1 1
0.7 0.1 1
0.8 0.1 1
0.9 0.1 1
1 0.1 1
1.1 0.1 1
1.2 0.1 1
1.3 0.1 1
1.4 0.1 1
1.5 0.1 1
1.6 0.1 1
1.7 0.1 1
1.8 0.1 1
1.9 0.1 1
-0.1 0.2 1
0 0.2 1
0.1 0.2 1
0.2 0.2 1
0.3 0.2 1
0.4 0.2 1
0.5 0.2 1
0.6 0.2 1
0.7 0.2 1
0.8 0.2 1
0.9 0.2 1
1 0.2 1
1.1 0.2 1
1.2 0.2 1
1.3 0.2 1
1.4 0.2 1
1.5 0.2 1
1.6 0.2 1
1.7 0.2 1
1.8 0.2 1
1.9 0.2 1
-0.1 0.3 1
0 0.3 1
0.1 0.3 1
0.2 0.3 1
0.3 0.3 1
0.4 0.3 1
0.5 0.3 1
0.6 0.3 1
0.7 0.3 1
0.8 0.3 1
0.9 0.3 1
1 0.3 1
1.1 0.3 1
1.2 0.3 1
1.3 0.3 1
1.4 0.3 1
1.5 0.3 1
1.6 0.3 1
1.7 0.3 1
1.8 0.3 1
1.9 0.3 1
-0.1 0.4 1
0 0.4 1
0.1 0.4 1
0.2 0.4 1
0.3 0.4 1
0.4 0.4 1
0.5 0.4 1
0.6 0.4 1
0.7 0.4 1
0.8 0.4 1
0.9 0.4 1
1 0.4 1
1.1 0.4 1
1.2 0.4 1
1.3 0.4 1
1.4 0.4 1
1.5 0.4 1
1.6 0.4 1
1.7 0.4 1
1.8 0.4 1
1.9 0.4 1
-0.1 0.5 1
0 0.5 1
0.1 0.5 1
0.2 0.5 1
0.3 0.5 1
0.4 0.5 1
0.5 0.5 1
0.6 0.5 1
0.7 0.5 1
0.8 0.5 1
0.9 0.5 1
1 0.5 1
1.1 0.5 1
1.2 0.5 1
1.3 0.5 1
1.4 0.5 1
1.5 0.5 1
1.6 0.5 1
1.7 0.5 1
1.8 0.5 1
1.9 0.5 1
-0.1 0.6 1
0 0.6 1
0.1 0.6 1
0.2 0.6 1
0.3 0.6 1
0.4 0.6 1
0.5 0.6 1
0.6 0.6 1
0.7 0.6 1
0.8 0.6 1
0.9 0.6 1
1 0.6 1
1.1 0.6 1
1.2 0.6 1
1.3 0.6 1
1.4 0.6 1
1.5 0.6 1
1.6 0.6 1
1.7 0.6 1
1.8 0.6 1
1.9 0.6 1
-0.1 0.7 1
0 0.7 1
0.1 0.7 1
0.2 0.7 1
0.3 0.7 1
0.4 0.7 1
0.5 0.7 1
0.6 0.7 1
0.7 0.7 1
0.8 0.7 1
0.9 0.7 1
1 0.7 1
1.1 0.7 1
1.2 0.7 1
1.3 0.7 1
1.4 0.7 1
1.5 0.7 1
1.6 0.7 1
1.7 0.7 1
1.8 0.7 1
1.9 0.7 1
-0.1 0.8 1
0 0.8 1
0.1 0.8 1
0.2 0.8 1
0.3 0.8 1
0.4 0.8 1
0.5 0.8 1
0.6 0.8 1
0.7 0.8 1
0.8 0.8 1
0.9 0.8 1
1 0.8 1
1.1 0.8 1
1.2 0.8 1
1.3 0.8 1
1.4 0.8 1
1.5 0.8 1
1.6 0.8 1
1.7 0.8 1
1.8 0.8 1
1.9 0.8 1
-0.1 0.9 1
0 0.9 1
0.1 0.9 1
0.2 0.9 1
0.3 0.9 1
0.4 0.9 1
0.5 0.9 1
0.6 0.9 1
0.7 0.9 1
0.8 0.9 1
0.9 0.9 1
1 0.9 1
1.1 0.9 1
1.2 0.9 1
1.3 0.9 1
1.4 0.9 1
1.5 0.9 1
1.6 0.9 1
1.7 0.9 1
1.8 0.9 1
1.9 0.9 1
-0.1 1 1
0 1 1
0.1 1 1
0.2 1 1
0.3 1 1
0.4 1 1
0.5 1 1
0.6 1 1
0.7 1 1
0.8 1 1
0.9 1 1
1 1 1
1.1 1 1
1.2 1 1
1.3 1 1
1.4 1 1
1.5 1 1
1.6 1 1
1.7 1 1
1.8 1 1
1.9 1 1
-0.1 1.1 1
0 1.1 1
0.1 1.1 1
0.2 1.1 1
0.3 1.1 1
0.4 1.1 1
0.5 1.1 1
0.6 1.1 1
0.7 1.1 1
0.8 1.1 1
0.9 1.1 1
1 1.1 1
1.1 1.1 1
1.2 1.1 1
1.3 1.1 1
1.4 1.1 1
1.5 1.1 1
1.6 1.1 1
1.7 1.1 1
1.8 1.1 1
1.9 1.1 1
-0.1 1.2 1
0 1.2 1
0.1 1.2 1
0.2 1.2 1
0.3 1.2 1
0.4 1.2 1
0.5 1.2 1
0.6 1.2 1
0.7 1.2 1
0.8 1.2 1
0.9 1.2 1
1 1.2 1
1.1 1.2 1
1.2 1.2 1
1.3 1.2 1
1.4 1.2 1
1.5 1.2 1
1.6 1.2 1
1.7 1.2 1
1.8 1.2 1
1.9 1.2 1
-0.1 1.3 1
0 1.3 1
0.1 1.3 1
0.2 1.3 1
0.3 1.3 1
0.4 1.3 1
0.5 1.3 1
0.6 1.3 1
0.7 1.3 1
0.8 1.3 1
0.9 1.3 1
1 1.3 1
1.1 1.3 1
1.2 1.3 1
1.3 1.3 1
1.4 1.3 1
1.5 1.3 1
1.6 1.3 1
1.7 1.3 1
1.8 1.3 1
1.9 1.3 1
-0.1 1.4 1
0 1.4 1
0.1 1.4 1
0.2 1.4 1
0.3 1.4 1
0.4 1.4 1
0.5 1.4 1
0.6 1.4 1
0.7 1.4 1
0.8 1.4 1
0.9 1.4 1
1 1.4 1
1.1 1.4 1
1.2 1.4 1
1.3 1.4 1
1.4 1.4 1
1.5 1.4 1
1.6 1.4 1
1.7 1.4 1
1.8 1.4 1
1.9 1.4 1
-0.1 1.5 1
0 1.5 1
0.1 1.5 1
0.2 1.5 1
0.3 1.5 1
0.4 1.5 1
0.5 1.5 1
0.6 1.5 1
0.7 1.5 1
0.8 1.5 1
0.9 1.5 1
1 1.5 1
1.1 1.5 1
1.2 1.5 1
1.3 1.5 1
1.4 1.5 1
1.5 1.5 1
1.6 1.5 1
1.7 1.5 1
1.8 1.5 1
1.9 1.5 1
-0.1 1.6 1
0 1.6 1
0.1 1.6 1
0.2 1.6 1
0.3 1.6 1
0.4 1.6 1
0.5 1.6 1
0.6 1.6 1
0.7 1.6 1
0.8 1.6 1
0.9 1.6 1
1 1.6 1
1.1 1.6 1
1.2 1.6 1
1.3 1.6 1
1.4 1.6 1
1.5 1.6 1
1.6 1.6 1
1.7 1.6 1
1.8 1.6 1
1.9 1.6 1
-0.1 1.7 1
0 1.7 1
0.1 1.7 1
0.2 1.7 1
0.3 1.7 1
0.4 1.7 1
0.5 1.7 1
0.6 1.7 1
0.7 1.7 1
0.8 1.7 1
0.9 1.7 1
1 1.7 1
1.1 1.7 1
1.2 1.7 1
1.3 1.7 1
1.4 1.7 1
1.5 1.7 1
1.6 1.7 1
1.7 1.7 1
1.8 1.7 1
1.9 1.7 1
-0.1 1.8 1
0 1.8 1
0.1 1.8 1
0.2 1.8 1
0.3 1.8 1
0.4 1.8 1
0.5 1.8 1
0.6 1.8 1
0.7 1.8 1
0.8 1.8 1
0.9 1.8 1
1 1.8 1
1.1 1.8 1
1.2 1.8 1
1.3 1.8 1
1.4 1.8 1
1.5 1.8 1
1.6 1.8 1
1.7 1.8 1
1.8 1.8 1
1.9 1.8 1
-0.1 1.9 1
0 1.9 1
0.1 1.9 1
0.2 1.9 1
0.3 1.9 1
0.4 1.9 1
0.5 1.9 1
0.6 1.9 1
0.7 1.9 1
0.8 1.9 1
0.9 1.9 1
1 1.9 1
1.1 1.9 1
1.2 1.9 1
1.3 1.9 1
1.4 1.9 1
1.5 1.9 1
1.6 1.9 1
1.7 1.9 1
1.8 1.9 1
1.9 1.9 1
-0.1 -0.1 1.1
0 -0.1 1.1
0.1 -0.1 1.1
0.2 -0.1 1.1
0.3 -0.1 1.1
0.4 -0.1 1.1
0.5 -0.1 1.1
0.6 -0.1 1.1
0.7 -0.1 1.1
0.8 -0.1 1.1
0.9 -0.1 1.1
1 -0.1 1.1
1.1 -0.1 1.1
1.2 -0.1 1.1
1.3 -0.1 1.1
1.4 -0.1 1.1
1.5 -0.1 1.1
1.6 -0.1 1.1
1.7 -0.1 1.1
1.8 -0.1 1.1
1.9 -0.1 1.1
-0.1 0 1.1
0 0 1.1
0.1 0 1.1
0.2 0 1.1
0.3 0 1.1
0.4 0 1.1
0.5 0 1.1
0.6 0 1.1
0.7 0 1.1
0.8 0 1.1
0.9 0 1.1
1 0 1.1
1.1 0 1.1
1.2 0 1.1
1.3 0 1.1
1.4 0 1.1
1.5 0 1.1
[...]
CELL_DATA 4000
VECTORS velocity double 
4.74315e-05 -8.81912e-05 0.00330404
8.28702e-05 -8.45566e-05 0.0049899
8.44716e-05 -8.45456e-05 0.00542557
6.66242e-05 -8.89164e-05 0.00555737
3.87303e-05 -9.28589e-05 0.005602
5.50237e-06 -9.58417e-05 0.00560482
-3.01752e-05 -9.85626e-05 0.00557566
-6.58509e-05 -0.000101499 0.00551827
-9.89918e-05 -0.00010472 0.00543561
-0.00012713 -0.000107958 0.00533094
-0.000148018 -0.000110786 0.00520847
-0.000160097 -0.000112651 0.00507429
-0.000162867 -0.000112861 0.00493674
-0.000157294 -0.00011069 0.0048061
-0.000146515 -0.000105679 0.00469386
-0.000135823 -9.77116e-05 0.00461149
-0.000132247 -8.76944e-05 0.00456421
-0.000140428 -7.7799e-05 0.00451946
-0.00014903 -7.12132e-05 0.00427007
-7.45148e-05 -5.68812e-05 0.00290235
7.40516e-05 -0.000332352 0.00511937
0.000114547 -0.000394784 0.00811693
0.000111379 -0.000416943 0.00890058
8.50622e-05 -0.000435273 0.00911714
4.63044e-05 -0.00044728 0.0091827
-2.31119e-07 -0.000454778 0.00918211
-5.15372e-05 -0.00046061 0.00912882
-0.000104612 -0.000466384 0.00902674
-0.000155941 -0.000472449 0.00888
-0.000201841 -0.000478345 0.00869407
-0.000238651 -0.000482996 0.00847627
-0.000263282 -0.000484932 0.00823712
-0.000273836 -0.000482485 0.007991
-0.000270467 -0.000473781 0.00775629
-0.000256281 -0.000457533 0.0075545
-0.000238213 -0.000433411 0.00740903
-0.000226814 -0.000402964 0.00733387
-0.000232044 -0.000370923 0.00727267
-0.000238473 -0.000342537 0.00684157
-0.000119237 -0.000276309 0.00447077
6.24624e-05 -0.000770853 0.00566386
8.58002e-05 -0.000976054 0.00882985
6.88265e-05 -0.00104482 0.00960749
3.34184e-05 -0.00108766 0.00981022
-1.15531e-05 -0.00111211 0.00987368
-6.3328e-05 -0.00112555 0.00987283
-0.000119839 -0.00113447 0.00981219
-0.000178247 -0.00114235 0.009692
-0.000234755 -0.00115011 0.00951567
-0.000284927 -0.00115707 0.00928905
-0.000324109 -0.00116145 0.00902054
-0.000348166 -0.00116074 0.00872257
-0.000354006 -0.00115193 0.00841251
-0.000341038 -0.00113193 0.0081137
-0.000312205 -0.00109819 0.0078548
-0.000275264 -0.00104995 0.00766998
-0.000243673 -0.000989411 0.00759061
-0.00023256 -0.000923618 0.00758075
-0.000232442 -0.000857886 0.00725211
-0.000116221 -0.00068598 0.00488411
2.53552e-05 -0.00140815 0.00568694
1.30478e-05 -0.00184236 0.00845279
-2.6213e-05 -0.00198406 0.0090219
-7.29969e-05 -0.00206279 0.00915424
-0.000123271 -0.00210465 0.00920455
-0.000177708 -0.00212586 0.00920521
-0.000235949 -0.00213814 0.00914324
-0.000295571 -0.00214755 0.00901325
-0.000352452 -0.00215591 0.00881726
-0.000401427 -0.0021624 0.00856081
-0.000436732 -0.00216445 0.00825266
-0.000452938 -0.00215833 0.00790639
-0.00044574 -0.0021395 0.00754192
-0.000413483 -0.00210324 0.00718689
-0.00035897 -0.00204563 0.00687724
-0.000290932 -0.00196489 0.00665909
-0.000226057 -0.00186394 0.00658802
-0.000186823 -0.00175191 0.00667864
-0.000177634 -0.00163032 0.00663444
-8.88172e-05 -0.00128471 0.00479849
-3.46099e-05 -0.00223915 0.00518822
-0.000100756 -0.00299917 0.00707576
-0.000171192 -0.00324358 0.00726599
-0.000232029 -0.00337088 0.0072768
-0.00028707 -0.0034358 0.00730157
-0.000342114 -0.00346705 0.00730258
-0.000399272 -0.0034833 0.0072417
-0.000456902 -0.00349397 0.00710556
-0.000510611 -0.00350204 0.00689415
-0.000554343 -0.00350671 0.00661232
-0.000581088 -0.00350463 0.00626892
-0.000583849 -0.00349073 0.0058784
-0.000556762 -0.00345859 0.00546305
-0.000496981 -0.00340143 0.00505526
-0.000406569 -0.00331333 0.00469858
-0.00029559 -0.00319138 0.00445348
-0.000184446 -0.00303844 0.00440616
-0.000105529 -0.00286583 0.0046472
-8.4615e-05 -0.00266526 0.00504959
-4.23075e-05 -0.00206593 0.00420626
-0.000118926 -0.00323824 0.00397043
-0.00025866 -0.00442734 0.00439956
-0.00037011 -0.00480805 0.00400724
-0.000448126 -0.00499787 0.00383084
-0.000507565 -0.00509211 0.00381066
-0.000561176 -0.00513598 0.00380758
-0.000614428 -0.00515703 0.00374859
-0.000666775 -0.00516897 0.0036096
-0.000713742 -0.00517633 0.00338751
-0.000748362 -0.00517838 0.00308618
-0.000762162 -0.00517099 0.00271414
-0.000746214 -0.00514757 0.00228659
-0.00069263 -0.0050995 0.00182836
-0.000596744 -0.00501746 0.00137615
-0.000459873 -0.00489288 0.000981868
-0.000292752 -0.00472078 0.00072214
-0.000120811 -0.00450391 0.000722163
1.14139e-05 -0.00425417 0.00117579
4.78696e-05 -0.003947 0.00221474
2.39348e-05 -0.00300592 0.00291979
-0.000230199 -0.00434614 0.00178659
-0.000465357 -0.00606396 2.9337e-05
-0.000628587 -0.00661576 -0.0011976
-0.000727121 -0.00688198 -0.00164562
-0.000790431 -0.00701149 -0.00173822
-0.000840297 -0.00707056 -0.00175301
-0.000886567 -0.00709746 -0.00181
-0.000930214 -0.00711097 -0.00194782
-0.000966789 -0.00711753 -0.00217387
-0.000988387 -0.0071167 -0.00248592
-0.000984935 -0.00710361 -0.0028762
-0.000945144 -0.00706999 -0.00332902
-0.000858568 -0.00700483 -0.00381744
-0.000718073 -0.00689553 -0.00430024
-0.000523439 -0.00673015 -0.00471671
-0.000286198 -0.00650069 -0.00497124
-3.67083e-05 -0.00620836 -0.00489048
0.000164591 -0.00586452 -0.00414355
0.000222519 -0.00541969 -0.0022351
0.000111259 -0.00404965 0.000707078
-0.000368886 -0.00545699 -0.00159934
-0.000721485 -0.0077833 -0.00641766
-0.000947041 -0.0085382 -0.00878585
-0.0010691 -0.00889276 -0.00961162
-0.00113558 -0.0090622 -0.00981265
-0.00117935 -0.00913826 -0.00985064
-0.00121559 -0.00917185 -0.0099073
-0.00124722 -0.00918746 -0.0100405
-0.00127009 -0.00919377 -0.0102635
-0.00127539 -0.00919074 -0.010576
-0.00125122 -0.00917288 -0.0109716
-0.00118371 -0.00913034 -0.0114345
-0.00105902 -0.00904939 -0.0119359
-0.000866752 -0.00891379 -0.0124299
-0.000604118 -0.008707 -0.0128467
-0.000282494 -0.00841661 -0.0130689
6.22468e-05 -0.00804049 -0.0128632
0.000350729 -0.00758689 -0.0117225
0.000437605 -0.00697246 -0.00866285
0.000218803 -0.00509898 -0.00265663
-0.000531916 -0.00641046 -0.00637579
-0.00102135 -0.00938372 -0.0152491
-0.00131803 -0.0103645 -0.0191115
-0.00146561 -0.010814 -0.0204396
-0.00153406 -0.011025 -0.0207926
-0.00156937 -0.0111185 -0.0208681
-0.0015929 -0.0111591 -0.0209273
-0.00160993 -0.0111774 -0.0210528
-0.00161672 -0.0111845 -0.0212653
-0.00160374 -0.0111811 -0.0215669
-0.00155721 -0.0111611 -0.0219523
-0.00146034 -0.0111134 -0.0224066
-0.00129545 -0.0110218 -0.0228994
-0.00104751 -0.0108657 -0.0233803
-0.000709767 -0.0106232 -0.0237697
-0.000291914 -0.0102751 -0.0239257
0.000164868 -0.00981369 -0.0235421
0.000559351 -0.00923966 -0.0218908
0.000684952 -0.00842728 -0.0173582
0.000342476 -0.00600476 -0.00735213
-0.000710238 -0.00699001 -0.0126267
-0.00134837 -0.0105814 -0.0265936
-0.00172046 -0.011793 -0.0323252
-0.00189357 -0.0123348 -0.0342899
-0.0019624 -0.0125838 -0.0348425
-0.00198729 -0.0126926 -0.0349718
-0.00199627 -0.0127396 -0.0350374
-0.00199739 -0.0127609 -0.0351528
-0.00198754 -0.0127703 -0.0353478
-0.00195656 -0.0127691 -0.0356274
-0.00188911 -0.0127515 -0.0359872
-0.00176544 -0.0127055 -0.036413
-0.00156332 -0.0126127 -0.036874
-0.00126205 -0.0124488 -0.0373157
-0.000848538 -0.0121849 -0.0376483
-0.000328867 -0.0117935 -0.037702
0.00025239 -0.0112569 -0.0370839
0.00076955 -0.0105627 -0.0347959
0.000945586 -0.00953373 -0.0284479
0.000472793 -0.00656555 -0.0134622
-0.000887092 -0.0069344 -0.0202605
-0.00167154 -0.0110195 -0.0402829
-0.0021153 -0.0124391 -0.0482389
-0.00231046 -0.0130561 -0.0509691
-0.00237741 -0.0133319 -0.0517665
-0.00239076 -0.0134502 -0.0519653
-0.00238493 -0.0135012 -0.0520422
-0.00237082 -0.0135255 -0.0521461
-0.00234623 -0.0135386 -0.0523181
-0.00230089 -0.0135431 -0.0525665
-0.00221827 -0.0135337 -0.0528878
-0.00207596 -0.0134988 -0.0532686
-0.00184725 -0.0134192 -0.0536778
-0.00150426 -0.013267 -0.0540586
-0.00102566 -0.0130073 -0.0543107
-0.000409873 -0.0126017 -0.0542331
0.000297875 -0.012018 -0.0533302
0.000948223 -0.0112219 -0.050285
0.00118725 -0.00997673 -0.041792
0.000593626 -0.00653716 -0.0209079
-0.00103623 -0.00596886 -0.0289433
-0.00194225 -0.0103012 -0.0557353
-0.00244115 -0.011866 -0.066188
-0.00264965 -0.0125218 -0.0697815
-0.00271144 -0.0128037 -0.0708556
-0.00271328 -0.0129213 -0.0711342
-0.00269471 -0.012972 -0.0712258
-0.00266878 -0.0129983 -0.0713188
-0.00263447 -0.0130162 -0.0714652
-0.00258218 -0.0130294 -0.0716771
-0.00249509 -0.0130344 -0.0719528
-0.00234913 -0.0130212 -0.0722794
-0.00211354 -0.0129719 -0.0726271
-0.00175322 -0.0128577 -0.0729377
-0.00123597 -0.0126385 -0.073102
-0.000548376 -0.0122651 -0.0728839
0.00026999 -0.0116859 -0.0716701
0.00105058 -0.0108335 -0.0677786
0.00136411 -0.00940422 -0.056878
0.000682056 -0.0056614 -0.029388
-0.00112074 -0.00386185 -0.0380575
-0.00209152 -0.00805502 -0.0718686
-0.00261158 -0.00965144 -0.084915
-0.00281778 -0.010286 -0.0894012
-0.00286988 -0.0105428 -0.0907568
-0.00286161 -0.010645 -0.0911141
-0.00283482 -0.0106892 -0.0912202
-0.0028035 -0.0107151 -0.0913036
-0.00276777 -0.0107377 -0.0914259
-0.00271954 -0.0107614 -0.0916023
-0.00264306 -0.0107855 -0.0918335
-0.00251473 -0.0108034 -0.0921086
-0.00230142 -0.0108011 -0.0924007
-0.00196204 -0.0107529 -0.0926537
-0.00145259 -0.0106179 -0.0927515
-0.000743064 -0.0103386 -0.0924214
0.000141661 -0.00984142 -0.0909192
0.00102579 -0.00901488 -0.086164
0.00141916 -0.00748104 -0.0727404
0.000709582 -0.00371732 -0.0383405
-0.00109281 -0.000512109 -0.0467052
-0.00203011 -0.00403743 -0.0870518
-0.0025154 -0.005492 -0.102474
-0.00269561 -0.00602095 -0.107754
-0.0027324 -0.00621244 -0.109346
-0.00271699 -0.006282 -0.109763
-0.00268882 -0.00631223 -0.109878
-0.00266106 -0.00633433 -0.109952
-0.00263475 -0.00635976 -0.110055
-0.00260385 -0.00639351 -0.110204
-0.00255584 -0.00643755 -0.110402
-0.00246987 -0.00649087 -0.110642
-0.00231454 -0.00654641 -0.110904
-0.002046 -0.00658655 -0.111139
-0.00161081 -0.00657696 -0.111229
-0.000959634 -0.00645925 -0.110869
-9.23399e-05 -0.00614283 -0.109181
0.000830093 -0.00546513 -0.103682
0.00129206 -0.00397204 -0.0879009
0.000646031 -0.000596087 -0.0469405
-0.000893482 0.00394222 -0.0536846
-0.00165057 0.00172932 -0.0989159
-0.00202266 0.000645629 -0.115939
-0.00214652 0.000323193 -0.121671
-0.00216239 0.000239343 -0.123365
-0.00214489 0.000219009 -0.123794
-0.00212449 0.000209621 -0.123902
-0.00211106 0.000195423 -0.123967
-0.00210606 0.000170557 -0.124059
-0.0021061 0.000130793 -0.124194
-0.00210346 7.09327e-05 -0.124378
-0.0020835 -1.38223e-05 -0.124611
-0.00202121 -0.000125904 -0.124885
-0.00187735 -0.000260875 -0.125163
-0.00159575 -0.000399707 -0.125341
-0.00111185 -0.000497444 -0.125094
-0.00039278 -0.000461281 -0.123442
0.000445915 -8.61257e-05 -0.117571
0.000931005 0.00114627 -0.100131
0.000465502 0.00360177 -0.0540574
-0.000461587 0.0089898 -0.0572336
-0.000848518 0.008781 -0.103475
-0.00101361 0.00833353 -0.120178
-0.00104897 0.00831479 -0.125551
-0.00104044 0.00837083 -0.127046
-0.00102842 0.00840984 -0.127388
-0.00102699 0.00842543 -0.127463
-0.00104013 0.00842265 -0.127516
-0.00106845 0.00840316 -0.127603
-0.00111162 0.00836408 -0.127738
-0.00116737 0.00829837 -0.127929
-0.00122987 0.00819583 -0.128185
-0.00128604 0.00804461 -0.128513
-0.00130999 0.00783351 -0.128901
-0.00125697 0.00755836 -0.129273
-0.0010615 0.00723465 -0.129335
-0.000662523 0.00692918 -0.128112
-9.83939e-05 0.00685348 -0.12272
0.000306501 0.00753721 -0.105466
0.00015325 0.00844381 -0.0579505
0.000262076 0.0135895 -0.0533955
0.000449389 0.015956 -0.0919577
0.000570483 0.0163708 -0.104387
0.0006374 0.0167061 -0.107892
0.000659302 0.0169051 -0.108683
0.000647204 0.0170002 -0.108788
0.000609648 0.01704 -0.10879
0.000550943 0.0170506 -0.108823
0.000472173 0.0170413 -0.108909
0.000371797 0.0170111 -0.10905
0.000246794 0.0169527 -0.109257
9.3887e-05 0.0168533 -0.109546
-8.88097e-05 0.0166944 -0.10994
-0.00029711 0.0164522 -0.11046
-0.000514092 0.0160988 -0.111087
-0.000701184 0.0156098 -0.11164
-0.000797746 0.0149954 -0.11139
-0.000757772 0.0144049 -0.108018
-0.000622376 0.0142549 -0.0948974
-0.000311188 0.0129908 -0.0545642
0.00127298 0.0160196 -0.0293922
0.00217019 0.021025 -0.041079
0.0025846 0.0223142 -0.0426789
0.00271452 0.0229396 -0.0424028
0.0027013 0.0232358 -0.04199
0.00261798 0.0233659 -0.0417399
0.00249797 0.0234223 -0.0416426
0.00235516 0.0234454 -0.0416484
0.00219322 0.0234489 -0.0417253
0.00201052 0.0234338 -0.041864
0.00180126 0.0233942 -0.0420709
0.00155523 0.0233179 -0.0423657
0.00125804 0.0231862 -0.0427817
0.000890087 0.022971 -0.0433663
0.000428997 0.0226312 -0.0441734
-0.000144301 0.0221116 -0.04522
-0.000827645 0.0213579 -0.0463539
-0.00154295 0.0203917 -0.0469017
-0.00193619 0.0193218 -0.0445861
-0.000968096 0.0155553 -0.0308821
0.00230004 0.0139645 0.0609792
0.00376637 0.0199909 0.112275
0.00429523 0.0215236 0.12758
0.00433418 0.0221533 0.132078
0.00416506 0.0224303 0.133507
0.00391728 0.0225502 0.133989
0.00364387 0.0226049 0.134141
0.00336482 0.0226316 0.134157
0.00308558 0.0226429 0.134102
0.00280442 0.0226408 0.133993
0.00251437 0.0226219 0.133828
0.00220304 0.022578 0.133592
0.00184948 0.0224957 0.133258
0.00141937 0.0223537 0.132775
0.000857601 0.0221174 0.13205
7.98601e-05 0.0217335 0.130897
-0.00101974 0.0211303 0.128824
-0.00244587 0.0202448 0.124029
-0.00350875 0.0188573 0.109224
-0.00175438 0.0136881 0.0595183
0.00198769 0.00698223 0.389667
0.00316512 0.00999545 0.529417
0.00339622 0.0107618 0.553922
0.00318405 0.0110766 0.558702
0.00283598 0.0112151 0.559834
0.00247748 0.0112751 0.560153
0.00214929 0.0113025 0.560243
0.00185967 0.0113158 0.560252
0.00160544 0.0113214 0.560221
0.0013794 0.0113204 0.560159
0.00117234 0.0113109 0.560069
0.000972665 0.011289 0.559944
0.000763135 0.0112479 0.559773
0.000515029 0.0111768 0.55953
0.000178157 0.0110587 0.55916
-0.000336647 0.0108668 0.558511
-0.0011651 0.0105652 0.557054
-0.00236736 0.0101224 0.552121
-0.00326867 0.00942867 0.52783
-0.00163434 0.00684405 0.388573
4.77403e-05 -1.16432e-06 0.00336376
9.04003e-05 1.85642e-05 0.0051356
0.000101803 2.5134e-05 0.0055958
9.17848e-05 2.54253e-05 0.00573588
6.83815e-05 2.42563e-05 0.00578639
3.62017e-05 2.25696e-05 0.00579462
-1.68035e-06 2.01762e-05 0.00577041
-4.25867e-05 1.69144e-05 0.00571733
-8.37914e-05 1.27976e-05 0.00563804
-0.000122475 8.00846e-06 0.00553538
-0.00015585 2.92759e-06 0.00541307
-0.000181378 -1.85001e-06 0.00527679
-0.000197184 -5.65363e-06 0.00513478
-0.00020268 -7.64822e-06 0.00499774
-0.000199273 -7.09856e-06 0.00487817
-0.000190445 -3.59622e-06 0.00478898
-0.000181469 2.23705e-06 0.00473651
-0.000175578 9.25602e-06 0.00468723
-0.000165684 1.53803e-05 0.00442018
-8.28419e-05 2.36998e-05 0.00297953
7.66163e-05 -9.41782e-05 0.00534476
0.000131522 -9.50321e-05 0.00854168
0.000146241 -9.47744e-05 0.00937938
0.00013483 -9.92731e-05 0.00961299
0.000106041 -0.000103399 0.00968848
6.43877e-05 -0.00010716 0.00969564
1.30572e-05 -0.000111954 0.00964827
-4.48478e-05 -0.000118638 0.00955011
-0.000105839 -0.000127324 0.00940509
-0.00016596 -0.000137503 0.00921811
-0.000220928 -0.000148307 0.00899592
-0.000266576 -0.000158354 0.00874859
-0.000299235 -0.000165861 0.00849058
-0.0003168 -0.00016871 0.00824102
-0.000319825 -0.000164991 0.00802308
-0.000312485 -0.000153657 0.00786282
-0.000301667 -0.000135248 0.00777683
-0.000293482 -0.000113385 0.00770607
-0.000273966 -9.26895e-05 0.00723809
-0.000136983 -6.15815e-05 0.00469845
7.90548e-05 -0.000360595 0.00606693
0.000129472 -0.000436823 0.00949804
0.000138526 -0.000460274 0.0103423
0.000122466 -0.000477031 0.0105668
8.93863e-05 -0.000486955 0.0106434
4.27558e-05 -0.000493485 0.0106522
-1.47901e-05 -0.000500483 0.0105982
-8.01794e-05 -0.000509901 0.0104816
-0.000149541 -0.000522201 0.0103055
-0.000218392 -0.000536798 0.0100752
-0.000281537 -0.000552136 0.0097985
-0.000333627 -0.000565942 0.0094871
-0.000369631 -0.000575041 0.00915852
-0.00038626 -0.000575844 0.00883697
-0.000383423 -0.000564883 0.00855332
-0.000365344 -0.00054 0.0083454
-0.000341456 -0.000501902 0.00824898
-0.000321432 -0.000456319 0.00822707
-0.000293922 -0.000410416 0.00785802
-0.000146961 -0.000319488 0.00527255
6.27541e-05 -0.000844445 0.0063061
9.5197e-05 -0.0010695 0.00939074
9.22062e-05 -0.00113763 0.0100327
6.93581e-05 -0.00117578 0.0101909
3.19467e-05 -0.00119537 0.0102582
-1.8695e-05 -0.00120595 0.010271
-8.07479e-05 -0.00121495 0.0102167
-0.000151342 -0.00122637 0.0100902
-0.000226406 -0.00124116 0.0098931
-0.00030066 -0.00125863 0.00963044
-0.00036795 -0.0012766 0.00931011
-0.000421475 -0.00129174 0.00894481
-0.000454739 -0.00129948 0.00855438
-0.000462991 -0.00129426 0.00816748
-0.000445223 -0.00127079 0.00782271
-0.000406029 -0.00122531 0.00757129
-0.000357585 -0.0011587 0.00747522
-0.000315672 -0.00107899 0.00755187
-0.000277822 -0.000993337 0.00747155
-0.000138911 -0.000784846 0.00538395
2.79505e-05 -0.00157764 0.00606004
2.78872e-05 -0.00204637 0.00831341
5.7291e-06 -0.00218534 0.00857876
-2.62379e-05 -0.00225613 0.00861939
-6.79113e-05 -0.00229037 0.00866552
-0.000121139 -0.00230676 0.00868171
-0.000185895 -0.00231806 0.00862988
-0.000259542 -0.00233065 0.00849711
-0.000337796 -0.00234658 0.00828329
-0.000414628 -0.00236505 0.00799263
-0.000482735 -0.00238338 0.00763271
-0.000533802 -0.00239708 0.00721692
-0.000559308 -0.00239979 0.00676727
-0.000552803 -0.0023839 0.006317
-0.000511852 -0.00234155 0.00591308
-0.000441606 -0.00226732 0.00562226
-0.000357636 -0.00216168 0.00554022
-0.000283841 -0.00203491 0.00576564
-0.000233018 -0.00188982 0.00614202
-0.000116509 -0.00148546 0.00502269
-2.81888e-05 -0.00257318 0.00511384
-7.77716e-05 -0.00340053 0.0059427
-0.000127812 -0.00364273 0.00562214
-0.000171903 -0.00375958 0.00547866
-0.000217778 -0.00381458 0.00548453
-0.000272187 -0.00383911 0.00550005
-0.000337226 -0.00385313 0.00545174
-0.000411166 -0.0038664 0.00531625
-0.000489477 -0.00388212 0.00509056
-0.000565462 -0.00389974 0.00477773
-0.000630558 -0.003916 0.00438467
-0.000674521 -0.00392518 0.00392509
-0.000686669 -0.00391899 0.00342318
-0.000658051 -0.00388726 0.00291657
-0.00058475 -0.00381924 0.00246109
-0.000472013 -0.00370687 0.00214139
-0.00033961 -0.00355029 0.00209562
-0.000222189 -0.00336099 0.00253323
-0.000155094 -0.00313114 0.00356389
-7.75468e-05 -0.00243344 0.00398426
-0.000109438 -0.0038128 0.00319209
-0.000228822 -0.00512736 0.00184199
-0.000316972 -0.00550996 0.000673105
-0.000376863 -0.00568783 0.000258353
-0.000426901 -0.00577009 0.000196123
-0.000480665 -0.00580565 0.000203306
-0.000543326 -0.00582313 0.000158618
-0.00061416 -0.00583661 2.44694e-05
-0.000688752 -0.00585097 -0.000206353
-0.000759724 -0.00586593 -0.000532569
-0.000817131 -0.0058778 -0.000948323
-0.000848664 -0.00587955 -0.00143992
-0.000840931 -0.0058608 -0.00198167
-0.000782036 -0.00580842 -0.00253133
-0.000665685 -0.00570812 -0.00302382
-0.000497502 -0.00554871 -0.00335381
-0.000301512 -0.0053285 -0.00333015
-0.000126556 -0.00505965 -0.00259714
-3.83804e-05 -0.00471436 -0.000667985
-1.91902e-05 -0.00361232 0.00200886
-0.000218289 -0.00523135 1.56927e-05
-0.000429356 -0.00716224 -0.00443246
-0.000566734 -0.00772486 -0.00677072
-0.000646091 -0.0079786 -0.00756731
-0.000700423 -0.00809462 -0.00773517
-0.000751535 -0.00814372 -0.00774816
-0.000808753 -0.0081656 -0.00779087
-0.000872864 -0.00817923 -0.00791998
-0.000939663 -0.00819151 -0.00814828
-0.00100126 -0.00820269 -0.00847685
-0.00104626 -0.00820862 -0.00890142
-0.00106003 -0.00820113 -0.00940881
-0.00102607 -0.00816765 -0.00997216
-0.000928759 -0.00809165 -0.0105448
-0.000758829 -0.00795462 -0.011052
-0.000520995 -0.00774082 -0.0113646
-0.0002446 -0.00744563 -0.0112264
4.13488e-06 -0.00707961 -0.0100936
0.000119248 -0.00658382 -0.00697033
5.96241e-05 -0.00496222 -0.00116893
-0.000354628 -0.00670156 -0.00466
-0.000679542 -0.00936018 -0.0132618
-0.000876856 -0.0101396 -0.0171425
-0.000979246 -0.0104815 -0.0184526
-0.00103749 -0.0106359 -0.0187724
-0.00108398 -0.0107005 -0.0188211
-0.00113277 -0.0107275 -0.018865
-0.00118662 -0.0107415 -0.0189859
-0.00124183 -0.0107515 -0.0192037
-0.00128998 -0.0107586 -0.0195222
-0.00131843 -0.0107584 -0.0199387
-0.00131007 -0.0107417 -0.0204414
-0.00124478 -0.0106939 -0.0210025
-0.00110246 -0.0105948 -0.0215714
-0.000869424 -0.0104208 -0.0220633
-0.000548592 -0.0101502 -0.0223223