# vtk DataFile Version 2.0 
Visualization 
ASCII 
DATASET STRUCTURED_GRID 
DIMENSIONS 21 21 11
POINTS 4851 float
-0.1 -0.1 0.9
0 -0.1 0.9
0.1 -0.1 0.9
0.2 -0.1 0.9
0.3 -0.1 0.9
0.4 -0.1 0.9
0.5 -0.1 0.9
0.6 -0.1 0.9
0.7 -0.1 0.9
0.8 -0.1 0.9
0.9 -0.1 0.9
1 -0.1 0.9
1.1 -0.1 0.9
1.2 -0.1 0.9
1.3 -0.1 0.9
1.4 -0.1 0.9
1.5 -0.1 0.9
1.6 -0.1 0.9
1.7 -0.1 0.9
1.8 -0.1 0.9
1.9 -0.1 0.9
-0.1 0 0.9
0 0 0.9
0.1 0 0.9
0.2 0 0.9
0.3 0 0.9
0.4 0 0.9
0.5 0 0.9
0.6 0 0.9
0.7 0 0.9
0.8 0 0.9
0.9 0 0.9
1 0 0.9
1.1 0 0.9
1.2 0 0.9
1.3 0 0.9
1.4 0 0.9
1.5 0 0.9
1.6 0 0.9
1.7 0 0.9
1.8 0 0.9
1.9 0 0.9
-0.1 0.1 0.9
0 0.1 0.9
0.1 0.1 0.9
0.2 0.1 0.9
0.3 0.1 0.9
0.4 0.1 0.9
0.5 0.1 0.9
0.6 0.1 0.9
0.7 0.1 0.9
0.8 0.1 0.9
0.9 0.1 0.9
1 0.1 0.9
1.1 0.1 0.9
1.2 0.1 0.9
1.3 0.1 0.9
1.4 0.1 0.9
1.5 0.1 0.9
1.6 0.1 0.9
1.7 0.1 0.9
1.8 0.1 0.9
1.9 0.1 0.9
-0.1 0.2 0.9
0 0.2 0.9
0.1 0.2 0.9
0.2 0.2 0.9
0.3 0.2 0.9
0.4 0.2 0.9
0.5 0.2 0.9
0.6 0.2 0.9
0.7 0.2 0.9
0.8 0.2 0.9
0.9 0.2 0.9
1 0.2 0.9
1.1 0.2 0.9
1.2 0.2 0.9
1.3 0.2 0.9
1.4 0.2 0.9
1.5 0.2 0.9
1.6 0.2 0.9
1.7 0.2 0.9
1.8 0.2 0.9
1.9 0.2 0.9
-0.1 0.3 0.9
0 0.3 0.9
0.1 0.3 0.9
0.2 0.3 0.9
0.3 0.3 0.9
0.4 0.3 0.9
0.5 0.3 0.9
0.6 0.3 0.9
0.7 0.3 0.9
0.8 0.3 0.9
0.9 0.3 0.9
1 0.3 0.9
1.1 0.3 0.9
1.2 0.3 0.9
1.3 0.3 0.9
1.4 0.3 0.9
1.5 0.3 0.9
1.6 0.3 0.9
1.7 0.3 0.9
1.8 0.3 0.9
1.9 0.3 0.9
-0.1 0.4 0.9
0 0.4 0.9
0.1 0.4 0.9
0.2 0.4 0.9
0.3 0.4 0.9
0.4 0.4 0.9
0.5 0.4 0.9
0.6 0.4 0.9
0.7 0.4 0.9
0.8 0.4 0.9
0.9 0.4 0.9
1 0.4 0.9
1.1 0.4 0.9
1.2 0.4 0.9
1.3 0.4 0.9
1.4 0.4 0.9
1.5 0.4 0.9
1.6 0.4 0.9
1.7 0.4 0.9
1.8 0.4 0.9
1.9 0.4 0.9
-0.1 0.5 0.9
0 0.5 0.9
0.1 0.5 0.9
0.2 0.5 0.9
0.3 0.5 0.9
0.4 0.5 0.9
0.5 0.5 0.9
0.6 0.5 0.9
0.7 0.5 0.9
0.8 0.5 0.9
0.9 0.5 0.9
1 0.5 0.9
1.1 0.5 0.9
1.2 0.5 0.9
1.3 0.5 0.9
1.4 0.5 0.9
1.5 0.5 0.9
1.6 0.5 0.9
1.7 0.5 0.9
1.8 0.5 0.9
1.9 0.5 0.9
-0.1 0.6 0.9
0 0.6 0.9
0.1 0.6 0.9
0.2 0.6 0.9
0.3 0.6 0.9
0.4 0.6 0.9
0.5 0.6 0.9
0.6 0.6 0.9
0.7 0.6 0.9
0.8 0.6 0.9
0.9 0.6 0.9
1 0.6 0.9
1.1 0.6 0.9
1.2 0.6 0.9
1.3 0.6 0.9
1.4 0.6 0.9
1.5 0.6 0.9
1.6 0.6 0.9
1.7 0.6 0.9
1.8 0.6 0.9
1.9 0.6 0.9
-0.1 0.7 0.9
0 0.7 0.9
0.1 0.7 0.9
0.2 0.7 0.9
0.3 0.7 0.9
0.4 0.7 0.9
0.5 0.7 0.9
0.6 0.7 0.9
0.7 0.7 0.9
0.8 0.7 0.9
0.9 0.7 0.9
1 0.7 0.9
1.1 0.7 0.9
1.2 0.7 0.9
1.3 0.7 0.9
1.4 0.7 0.9
1.5 0.7 0.9
1.6 0.7 0.9
1.7 0.7 0.9
1.8 0.7 0.9
1.9 0.7 0.9
-0.1 0.8 0.9
0 0.8 0.9
0.1 0.8 0.9
0.2 0.8 0.9
0.3 0.8 0.9
0.4 0.8 0.9
0.5 0.8 0.9
0.6 0.8 0.9
0.7 0.8 0.9
0.8 0.8 0.9
0.9 0.8 0.9
1 0.8 0.9
1.1 0.8 0.9
1.2 0.8 0.9
1.3 0.8 0.9
1.4 0.8 0.9
1.5 0.8 0.9
1.6 0.8 0.9
1.7 0.8 0.9
1.8 0.8 0.9
1.9 0.8 0.9
-0.1 0.9 0.9
0 0.9 0.9
0.1 0.9 0.9
0.2 0.9 0.9
0.3 0.9 0.9
0.4 0.9 0.9
0.5 0.9 0.9
0.6 0.9 0.9
0.7 0.9 0.9
0.8 0.9 0.9
0.9 0.9 0.9
1 0.9 0.9
1.1 0.9 0.9
1.2 0.9 0.9
1.3 0.9 0.9
1.4 0.9 0.9
1.5 0.9 0.9
1.6 0.9 0.9
1.7 0.9 0.9
1.8 0.9 0.9
1.9 0.9 0.9
-0.1 1 0.9
0 1 0.9
0.1 1 0.9
0.2 1 0.9
0.3 1 0.9
0.4 1 0.9
0.5 1 0.9
0.6 1 0.9
0.7 1 0.9
0.8 1 0.9
0.9 1 0.9
1 1 0.9
1.1 1 0.9
1.2 1 0.9
1.3 1 0.9
1.4 1 0.9
1.5 1 0.9
1.6 1 0.9
1.7 1 0.9
1.8 1 0.9
1.9 1 0.9
-0.1 1.1 0.9
0 1.1 0.9
0.1 1.1 0.9
0.2 1.1 0.9
0.3 1.1 0.9
0.4 1.1 0.9
0.5 1.1 0.9
0.6 1.1 0.9
0.7 1.1 0.9
0.8 1.1 0.9
0.9 1.1 0.9
1 1.1 0.9
1.1 1.1 0.9
1.2 1.1 0.9
1.3 1.1 0.9
1.4 1.1 0.9
1.5 1.1 0.9
1.6 1.1 0.9
1.7 1.1 0.9
1.8 1.1 0.9
1.9 1.1 0.9
-0.1 1.2 0.9
0 1.2 0.9
0.1 1.2 0.9
0.2 1.2 0.9
0.3 1.2 0.9
0.4 1.2 0.9
0.5 1.2 0.9
0.6 1.2 0.9
0.7 1.2 0.9
0.8 1.2 0.9
0.9 1.2 0.9
1 1.2 0.9
1.1 1.2 0.9
1.2 1.2 0.9
1.3 1.2 0.9
1.4 1.2 0.9
1.5 1.2 0.9
1.6 1.2 0.9
1.7 1.2 0.9
1.8 1.2 0.9
1.9 1.2 0.9
-0.1 1.3 0.9
0 1.3 0.9
0.1 1.3 0.9
0.2 1.3 0.9
0.3 1.3 0.9
0.4 1.3 0.9
0.5 1.3 0.9
0.6 1.3 0.9
0.7 1.3 0.9
0.8 1.3 0.9
0.9 1.3 0.9
1 1.3 0.9
1.1 1.3 0.9
1.2 1.3 0.9
1.3 1.3 0.9
1.4 1.3 0.9
1.5 1.3 0.9
1.6 1.3 0.9
1.7 1.3 0.9
1.8 1.3 0.9
1.9 1.3 0.9
-0.1 1.4 0.9
0 1.4 0.9
0.1 1.4 0.9
0.2 1.4 0.9
0.3 1.4 0.9
0.4 1.4 0.9
0.5 1.4 0.9
0.6 1.4 0.9
0.7 1.4 0.9
0.8 1.4 0.9
0.9 1.4 0.9
1 1.4 0.9
1.1 1.4 0.9
1.2 1.4 0.9
1.3 1.4 0.9
1.4 1.4 0.9
1.5 1.4 0.9
1.6 1.4 0.9
1.7 1.4 0.9
1.8 1.4 0.9
1.9 1.4 0.9
-0.1 1.5 0.9
0 1.5 0.9
0.1 1.5 0.9
0.2 1.5 0.9
0.3 1.5 0.9
0.4 1.5 0.9
0.5 1.5 0.9
0.6 1.5 0.9
0.7 1.5 0.9
0.8 1.5 0.9
0.9 1.5 0.9
1 1.5 0.9
1.1 1.5 0.9
1.2 1.5 0.9
1.3 1.5 0.9
1.4 1.5 0.9
1.5 1.5 0.9
1.6 1.5 0.9
1.7 1.5 0.9
1.8 1.5 0.9
1.9 1.5 0.9
-0.1 1.6 0.9
0 1.6 0.9
0.1 1.6 0.9
0.2 1.6 0.9
0.3 1.6 0.9
0.4 1.6 0.9
0.5 1.6 0.9
0.6 1.6 0.9
0.7 1.6 0.9
0.8 1.6 0.9
0.9 1.6 0.9
1 1.6 0.9
1.1 1.6 0.9
1.2 1.6 0.9
1.3 1.6 0.9
1.4 1.6 0.9
1.5 1.6 0.9
1.6 1.6 0.9
1.7 1.6 0.9
1.8 1.6 0.9
1.9 1.6 0.9
-0.1 1.7 0.9
0 1.7 0.9
0.1 1.7 0.9
0.2 1.7 0.9
0.3 1.7 0.9
0.4 1.7 0.9
0.5 1.7 0.9
0.6 1.7 0.9
0.7 1.7 0.9
0.8 1.7 0.9
0.9 1.7 0.9
1 1.7 0.9
1.1 1.7 0.9
1.2 1.7 0.9
1.3 1.7 0.9
1.4 1.7 0.9
1.5 1.7 0.9
1.6 1.7 0.9
1.7 1.7 0.9
1.8 1.7 0.9
1.9 1.7 0.9
-0.1 1.8 0.9
0 1.8 0.9
0.1 1.8 0.9
0.2 1.8 0.9
0.3 1.8 0.9
0.4 1.8 0.9
0.5 1.8 0.9
0.6 1.8 0.9
0.7 1.8 0.9
0.8 1.8 0.9
0.9 1.8 0.9
1 1.8 0.9
1.1 1.8 0.9
1.2 1.8 0.9
1.3 1.8 0.9
1.4 1.8 0.9
1.5 1.8 0.9
1.6 1.8 0.9
1.7 1.8 0.9
1.8 1.8 0.9
1.9 1.8 0.9
-0.1 1.9 0.9
0 1.9 0.9
0.1 1.9 0.9
0.2 1.9 0.9
0.3 1.9 0.9
0.4 1.9 0.9
0.5 1.9 0.9
0.6 1.9 0.9
0.7 1.9 0.9
0.8 1.9 0.9
0.9 1.9 0.9
1 1.9 0.9
1.1 1.9 0.9
1.2 1.9 0.9
1.3 1.9 0.9
1.4 1.9 0.9
1.5 1.9 0.9
1.6 1.9 0.9
1.7 1.9 0.9
1.8 1.9 0.9
1.9 1.9 0.9
-0.1 -0.1 1
0 -0.1 1
0.1 -0.1 1
0.2 -0.1 1
0.3 -0.1 1
0.4 -0.1 1
0.5 -0.1 1
0.6 -0.1 1
0.7 -0.1 1
0.8 -0.1 1
0.9 -0.1 1
1 -0.1 1
1.1 -0.1 1
1.2 -0.1 1
1.3 -0.1 1
1.4 -0.1 1
1.5 -0.1 1
1.6 -0.1 1
1.7 -0.1 1
1.8 -0.1 1
1.9 -0.1 1
-0.1 0 1
0 0 1
0.1 0 1
0.2 0 1
0.3 0 1
0.4 0 1
0.5 0 1
0.6 0 1
0.7 0 1
0.8 0 1
0.9 0 1
1 0 1
1.1 0 1
1.2 0 1
1.3 0 1
1.4 0 1
1.5 0 1
1.6 0 1
1.7 0 1
1.8 0 1
1.9 0 1
-0.1 0.1 1
0 0.1 1
0.1 0.1 1
0.2 0.1 1
0.3 0.1 1
0.4 0.1 1
0.5 0.1 1
0.6 0.1 1
0.7 0.1 1
0.8 0.1 1
0.9 0.1 1
1 0.1 1
1.1 0.1 1
1.2 0.1 1
1.3 0.1 1
1.4 0.1 1
1.5 0.1 1
1.6 0.1 1
1.7 0.1 1
1.8 0.1 1
1.9 0.1 1
-0.1 0.2 1
0 0.2 1
0.1 0.2 1
0.2 0.2 1
0.3 0.2 1
0.4 0.2 1
0.5 0.2 1
0.6 0.2 1
0.7 0.2 1
0.8 0.2 1
0.9 0.2 1
1 0.2 1
1.1 0.2 1
1.2 0.2 1
1.3 0.2 1
1.4 0.2 1
1.5 0.2 1
1.6 0.2 1
1.7 0.2 1
1.8 0.2 1
1.9 0.2 1
-0.1 0.3 1
0 0.3 1
0.1 0.3 1
0.2 0.3 1
0.3 0.3 1
0.4 0.3 1
0.5 0.3 1
0.6 0.3 1
0.7 0.3 1
0.8 0.3 1
0.9 0.3 1
1 0.3 1
1.1 0.3 1
1.2 0.3 1
1.3 0.3 1
1.4 0.3 1
1.5 0.3 1
1.6 0.3 1
1.7 0.3 1
1.8 0.3 1
1.9 0.3 1
-0.1 0.4 1
0 0.4 1
0.1 0.4 1
0.2 0.4 1
0.3 0.4 1
0.4 0.4 1
0.5 0.4 1
0.6 0.4 1
0.7 0.4 1
0.8 0.4 1
0.9 0.4 1
1 0.4 1
1.1 0.4 1
1.2 0.4 1
1.3 0.4 1
1.4 0.4 1
1.5 0.4 1
1.6 0.4 1
1.7 0.4 1
1.8 0.4 1
1.9 0.4 1
-0.1 0.5 1
0 0.5 1
0.1 0.5 1
0.2 0.5 1
0.3 0.5 1
0.4 0.5 1
0.5 0.5 1
0.6 0.5 1
0.7 0.5 1
0.8 0.5 1
0.9 0.5 1
1 0.5 1
1.1 0.5 1
1.2 0.5 1
1.3 0.5 1
1.4 0.5 1
1.5 0.5 1
1.6 0.5 1
1.7 0.5 1
1.8 0.5 1
1.9 0.5 1
-0.1 0.6 1
0 0.6 1
0.1 0.6 1
0.2 0.6 1
0.3 0.6 1
0.4 0.6 1
0.5 0.6 1
0.6 0.6 1
0.7 0.6 1
0.8 0.6 1
0.9 0.6 1
1 0.6 1
1.1 0.6 1
1.2 0.6 1
1.3 0.6 1
1.4 0.6 1
1.5 0.6 1
1.6 0.6 1
1.7 0.6 1
1.8 0.6 1
1.9 0.6 1
-0.1 0.7 1
0 0.7 1
0.1 0.7 1
0.2 0.7 1
0.3 0.7 1
0.4 0.7 1
0.5 0.7 1
0.6 0.7 1
0.7 0.7 1
0.8 0.7 1
0.9 0.7 1
1 0.7 1
1.1 0.7 1
1.2 0.7 1
1.3 0.7 1
1.4 0.7 1
1.5 0.7 1
1.6 0.7 1
1.7 0.7 1
1.8 0.7 1
1.9 0.7 1
-0.1 0.8 1
0 0.8 1
0.1 0.8 1
0.2 0.8 1
0.3 0.8 1
0.4 0.8 1
0.5 0.8 1
0.6 0.8 1
0.7 0.8 1
0.8 0.8 1
0.9 0.8 1
1 0.8 1
1.1 0.8 1
1.2 0.8 1
1.3 0.8 1
1.4 0.8 1
1.5 0.8 1
1.6 0.8 1
1.7 0.8 1
1.8 0.8 1
1.9 0.8 1
-0.1 0.9 1
0 0.9 1
0.1 0.9 1
0.2 0.9 1
0.3 0.9 1
0.4 0.9 1
0.5 0.9 1
0.6 0.9 1
0.7 0.9 1
0.8 0.9 1
0.9 0.9 1
1 0.9 1
1.1 0.9 1
1.2 0.9 1
1.3 0.9 1
1.4 0.9 1
1.5 0.9 1
1.6 0.9 1
1.7 0.9 1
1.8 0.9 1
1.9 0.9 1
-0.1 1 1
0 1 1
0.1 1 1
0.2 1 1
0.3 1 1
0.4 1 1
0.5 1 1
0.6 1 1
0.7 1 1
0.8 1 1
0.9 1 1
1 1 1
1.1 1 1
1.2 1 1
1.3 1 1
1.4 1 1
1.5 1 1
1.6 1 1
1.7 1 1
1.8 1 1
1.9 1 1
-0.1 1.1 1
0 1.1 1
0.1 1.1 1
0.2 1.1 1
0.3 1.1 1
0.4 1.1 1
0.5 1.1 1
0.6 1.1 1
0.7 1.1 1
0.8 1.1 1
0.9 1.1 1
1 1.1 1
1.1 1.1 1
1.2 1.1 1
1.3 1.1 1
1.4 1.1 1
1.5 1.1 1
1.6 1.1 1
1.7 1.1 1
1.8 1.1 1
1.9 1.1 1
-0.1 1.2 1
0 1.2 1
0.1 1.2 1
0.2 1.2 1
0.3 1.2 1
0.4 1.2 1
0.5 1.2 1
0.6 1.2 1
0.7 1.2 1
0.8 1.2 1
0.9 1.2 1
1 1.2 1
1.1 1.2 1
1.2 1.2 1
1.3 1.2 1
1.4 1.2 1
1.5 1.2 1
1.6 1.2 1
1.7 1.2 1
1.8 1.2 1
1.9 1.2 1
-0.1 1.3 1
0 1.3 1
0.1 1.3 1
0.2 1.3 1
0.3 1.3 1
0.4 1.3 1
0.5 1.3 1
0.6 1.3 1
0.7 1.3 1
0.8 1.3 1
0.9 1.3 1
1 1.3 1
1.1 1.3 1
1.2 1.3 1
1.3 1.3 1
1.4 1.3 1
1.5 1.3 1
1.6 1.3 1
1.7 1.3 1
1.8 1.3 1
1.9 1.3 1
-0.1 1.4 1
0 1.4 1
0.1 1.4 1
0.2 1.4 1
0.3 1.4 1
0.4 1.4 1
0.5 1.4 1
0.6 1.4 1
0.7 1.4 1
0.8 1.4 1
0.9 1.4 1
1 1.4 1
1.1 1.4 1
1.2 1.4 1
1.3 1.4 1
1.4 1.4 1
1.5 1.4 1
1.6 1.4 1
1.7 1.4 1
1.8 1.4 1
1.9 1.4 1
-0.1 1.5 1
0 1.5 1
0.1 1.5 1
0.2 1.5 1
0.3 1.5 1
0.4 1.5 1
0.5 1.5 1
0.6 1.5 1
0.7 1.5 1
0.8 1.5 1
0.9 1.5 1
1 1.5 1
1.1 1.5 1
1.2 1.5 1
1.3 1.5 1
1.4 1.5 1
1.5 1.5 1
1.6 1.5 1
1.7 1.5 1
1.8 1.5 1
1.9 1.5 1
-0.1 1.6 1
0 1.6 1
0.1 1.6 1
0.2 1.6 1
0.3 1.6 1
0.4 1.6 1
0.5 1.6 1
0.6 1.6 1
0.7 1.6 1
0.8 1.6 1
0.9 1.6 1
1 1.6 1
1.1 1.6 1
1.2 1.6 1
1.3 1.6 1
1.4 1.6 1
1.5 1.6 1
1.6 1.6 1
1.7 1.6 1
1.8 1.6 1
1.9 1.6 1
-0.1 1.7 1
0 1.7 1
0.1 1.7 1
0.2 1.7 1
0.3 1.7 1
0.4 1.7 1
0.5 1.7 1
0.6 1.7 1
0.7 1.7 1
0.8 1.7 1
0.9 1.7 1
1 1.7 1
1.1 1.7 1
1.2 1.7 1
1.3 1.7 1
1.4 1.7 1
1.5 1.7 1
1.6 1.7 1
1.7 1.7 1
1.8 1.7 1
1.9 1.7 1
-0.1 1.8 1
0 1.8 1
0.1 1.8 1
0.2 1.8 1
0.3 1.8 1
0.4 1.8 1
0.5 1.8 1
0.6 1.8 1
0.7 1.8 1
0.8 1.8 1
0.9 1.8 1
1 1.8 1
1.1 1.8 1
1.2 1.8 1
1.3 1.8 1
1.4 1.8 1
1.5 1.8 1
1.6 1.8 1
1.7 1.8 1
1.8 1.8 1
1.9 1.8 1
-0.1 1.9 1
0 1.9 1
0.1 1.9 1
0.2 1.9 1
0.3 1.9 1
0.4 1.9 1
0.5 1.9 1
0.6 1.9 1
0.7 1.9 1
0.8 1.9 1
0.9 1.9 1
1 1.9 1
1.1 1.9 1
1.2 1.9 1
1.3 1.9 1
1.4 1.9 1
1.5 1.9 1
1.6 1.9 1
1.7 1.9 1
1.8 1.9 1
1.9 1.9 1
-0.1 -0.1 1.1
0 -0.1 1.1
0.1 -0.1 1.1
0.2 -0.1 1.1
0.3 -0.1 1.1
0.4 -0.1 1.1
0.5 -0.1 1.1
0.6 -0.1 1.1
0.7 -0.1 1.1
0.8 -0.1 1.1
0.9 -0.1 1.1
1 -0.1 1.1
1.1 -0.1 1.1
1.2 -0.1 1.1
1.3 -0.1 1.1
1.4 -0.1 1.1
1.5 -0.1 1.1
1.6 -0.1 1.1
1.7 -0.1 1.1
1.8 -0.1 1.1
1.9 -0.1 1.1
-0.1 0 1.1
0 0 1.1
0.1 0 1.1
0.2 0 1.1
0.3 0 1.1
0.4 0 1.1
0.5 0 1.1
0.6 0 1.1
0.7 0 1.1
0.8 0 1.1
0.9 0 1.1
1 0 1.1
1.1 0 1.1
1.2 0 1.1
1.3 0 1.1
1.4 0 1.1
1.5 0 1.1
[...]
CELL_DATA 4000
VECTORS velocity double 
2.90034e-08 -1.75725e-05 -0.00288148
1.1427e-08 -1.75627e-05 -0.00288146
1.61572e-08 -1.75585e-05 -0.00288147
2.91671e-08 -1.75598e-05 -0.00288146
3.81095e-08 -1.75615e-05 -0.00288144
4.15847e-08 -1.75618e-05 -0.00288142
4.11793e-08 -1.75611e-05 -0.00288138
3.70644e-08 -1.75611e-05 -0.00288134
2.97832e-08 -1.75623e-05 -0.00288129
2.15892e-08 -1.75633e-05 -0.00288123
1.47721e-08 -1.75624e-05 -0.00288117
1.02403e-08 -1.75592e-05 -0.00288111
9.11865e-09 -1.75557e-05 -0.00288105
1.45553e-08 -1.75536e-05 -0.00288099
2.78875e-08 -1.75534e-05 -0.00288094
4.27423e-08 -1.75553e-05 -0.00288088
5.12693e-08 -1.75587e-05 -0.00288084
5.68136e-08 -1.75606e-05 -0.00288081
6.24974e-08 -1.75616e-05 -0.00288078
3.12487e-08 -1.75707e-05 -0.00288076
3.88011e-08 -4.42732e-05 -0.00295129
2.05466e-08 -4.42608e-05 -0.00295126
1.93367e-08 -4.42533e-05 -0.00295126
2.90425e-08 -4.42557e-05 -0.00295125
3.78436e-08 -4.42605e-05 -0.00295123
4.20617e-08 -4.42639e-05 -0.0029512
4.14195e-08 -4.4266e-05 -0.00295116
3.60461e-08 -4.42682e-05 -0.00295112
2.82338e-08 -4.427e-05 -0.00295107
2.17381e-08 -4.42695e-05 -0.00295101
1.8005e-08 -4.42648e-05 -0.00295095
1.54308e-08 -4.42569e-05 -0.00295089
1.37926e-08 -4.42493e-05 -0.00295083
1.70316e-08 -4.4245e-05 -0.00295077
2.72912e-08 -4.42463e-05 -0.00295071
3.90305e-08 -4.42545e-05 -0.00295066
4.75386e-08 -4.42658e-05 -0.00295061
5.39377e-08 -4.42743e-05 -0.00295058
5.19007e-08 -4.4286e-05 -0.00295056
2.59503e-08 -4.4305e-05 -0.00295054
4.63736e-08 -7.62601e-05 -0.00309235
2.96679e-08 -7.62488e-05 -0.0030923
2.22154e-08 -7.62361e-05 -0.00309229
2.65046e-08 -7.62376e-05 -0.00309228
3.33135e-08 -7.62461e-05 -0.00309226
3.73457e-08 -7.62543e-05 -0.00309223
3.691e-08 -7.62605e-05 -0.00309219
3.24991e-08 -7.62643e-05 -0.00309214
2.75375e-08 -7.62652e-05 -0.00309209
2.56429e-08 -7.62627e-05 -0.00309203
2.62186e-08 -7.62571e-05 -0.00309198
2.54206e-08 -7.62497e-05 -0.00309191
2.20573e-08 -7.62418e-05 -0.00309185
1.97344e-08 -7.62352e-05 -0.00309179
2.1409e-08 -7.62342e-05 -0.00309174
2.6475e-08 -7.6242e-05 -0.00309169
3.37241e-08 -7.62545e-05 -0.00309165
3.57715e-08 -7.62675e-05 -0.00309162
2.84038e-08 -7.62841e-05 -0.0030916
1.42019e-08 -7.62995e-05 -0.00309158
5.14572e-08 -0.000111942 -0.00330757
4.12327e-08 -0.000111944 -0.00330751
2.76349e-08 -0.000111931 -0.0033075
2.31694e-08 -0.000111929 -0.00330748
2.50809e-08 -0.000111937 -0.00330746
2.81596e-08 -0.000111947 -0.00330743
2.95669e-08 -0.000111954 -0.00330739
2.88457e-08 -0.000111958 -0.00330735
2.79358e-08 -0.000111957 -0.0033073
2.90448e-08 -0.000111953 -0.00330724
3.14182e-08 -0.000111949 -0.00330718
3.21492e-08 -0.000111946 -0.00330712
2.98054e-08 -0.000111942 -0.00330706
2.52779e-08 -0.000111937 -0.00330701
2.04982e-08 -0.000111936 -0.00330695
1.9187e-08 -0.00011194 -0.00330691
2.13349e-08 -0.000111949 -0.00330687
1.88532e-08 -0.000111961 -0.00330685
1.39746e-08 -0.000111973 -0.00330683
6.98729e-09 -0.000111984 -0.00330681
4.38907e-08 -0.00015086 -0.00360131
4.43304e-08 -0.000150884 -0.00360126
3.16074e-08 -0.00015088 -0.00360123
2.15589e-08 -0.000150875 -0.00360121
1.87171e-08 -0.000150876 -0.00360119
2.03956e-08 -0.000150881 -0.00360116
2.41337e-08 -0.000150886 -0.00360112
2.78547e-08 -0.000150887 -0.00360108
3.00611e-08 -0.000150884 -0.00360103
3.10136e-08 -0.00015088 -0.00360098
3.17048e-08 -0.000150879 -0.00360092
3.23383e-08 -0.000150879 -0.00360087
3.1525e-08 -0.00015088 -0.00360081
2.7178e-08 -0.00015088 -0.00360076
2.05958e-08 -0.000150882 -0.00360071
1.69592e-08 -0.000150886 -0.00360068
1.46371e-08 -0.000150892 -0.00360064
1.13161e-08 -0.000150904 -0.00360062
7.30199e-09 -0.000150917 -0.00360059
3.651e-09 -0.000150927 -0.00360056
2.12269e-08 -0.000193089 -0.00397921
3.04687e-08 -0.000193121 -0.00397918
2.86022e-08 -0.000193133 -0.00397915
2.28521e-08 -0.000193133 -0.00397912
1.9472e-08 -0.000193131 -0.0039791
1.96202e-08 -0.000193131 -0.00397908
2.39079e-08 -0.000193132 -0.00397904
2.99966e-08 -0.000193132 -0.003979
3.33146e-08 -0.000193129 -0.00397896
3.24678e-08 -0.000193125 -0.00397891
3.02699e-08 -0.000193123 -0.00397886
2.91515e-08 -0.000193122 -0.00397881
2.72993e-08 -0.000193122 -0.00397876
2.21353e-08 -0.000193124 -0.00397871
1.6496e-08 -0.000193128 -0.00397867
1.30974e-08 -0.00019313 -0.00397863
7.20593e-09 -0.000193136 -0.0039786
7.23697e-10 -0.000193148 -0.00397857
-2.88834e-09 -0.000193163 -0.00397854
-1.44417e-09 -0.000193175 -0.00397852
9.1162e-10 -0.000238872 -0.00444806
6.47853e-09 -0.000238884 -0.00444806
1.38524e-08 -0.000238901 -0.00444804
1.82089e-08 -0.000238911 -0.00444802
1.98915e-08 -0.000238912 -0.004448
2.09212e-08 -0.000238911 -0.00444797
2.52585e-08 -0.000238909 -0.00444794
3.22218e-08 -0.000238907 -0.0044479
3.65424e-08 -0.000238904 -0.00444786
3.59516e-08 -0.000238898 -0.00444782
3.32531e-08 -0.000238892 -0.00444777
3.049e-08 -0.000238886 -0.00444773
2.5727e-08 -0.000238882 -0.00444768
1.91083e-08 -0.000238881 -0.00444764
1.46278e-08 -0.000238879 -0.00444761
9.20434e-09 -0.000238878 -0.00444757
-1.34695e-09 -0.000238883 -0.00444754
-1.2017e-08 -0.00023889 -0.00444751
-1.60169e-08 -0.000238898 -0.00444749
-8.00844e-09 -0.000238914 -0.00444748
5.03916e-09 -0.000288356 -0.00501552
-2.70526e-09 -0.000288337 -0.00501551
-1.71101e-10 -0.000288335 -0.00501551
8.43518e-09 -0.000288341 -0.0050155
1.64664e-08 -0.000288344 -0.00501548
2.15813e-08 -0.000288343 -0.00501545
2.7552e-08 -0.00028834 -0.00501542
3.5354e-08 -0.000288335 -0.00501539
4.12654e-08 -0.00028833 -0.00501535
4.30976e-08 -0.000288323 -0.00501531
4.22051e-08 -0.000288314 -0.00501527
3.91027e-08 -0.000288304 -0.00501524
3.28413e-08 -0.000288296 -0.0050152
2.61213e-08 -0.000288288 -0.00501517
2.05374e-08 -0.00028828 -0.00501514
1.03626e-08 -0.000288275 -0.00501511
-1.91458e-09 -0.000288272 -0.00501509
-1.29956e-08 -0.000288267 -0.00501507
-2.6808e-08 -0.000288266 -0.00501507
-1.3404e-08 -0.000288278 -0.00501508
2.94555e-08 -0.00034137 -0.00568947
1.98759e-08 -0.000341355 -0.00568944
1.03842e-08 -0.000341334 -0.00568943
1.15713e-08 -0.000341323 -0.00568942
1.8247e-08 -0.000341317 -0.00568941
2.48993e-08 -0.000341311 -0.00568939
3.25422e-08 -0.000341303 -0.00568937
4.13315e-08 -0.000341294 -0.00568934
4.86659e-08 -0.000341284 -0.00568931
5.27581e-08 -0.000341274 -0.00568928
5.37969e-08 -0.000341262 -0.00568924
5.1574e-08 -0.000341249 -0.00568921
4.62048e-08 -0.000341237 -0.00568918
4.00021e-08 -0.000341224 -0.00568916
3.17786e-08 -0.000341212 -0.00568914
2.0948e-08 -0.000341202 -0.00568912
1.25697e-08 -0.00034119 -0.00568911
-7.41358e-10 -0.000341178 -0.00568911
-2.46367e-08 -0.000341167 -0.00568911
-1.23183e-08 -0.000341149 -0.00568913
3.49853e-08 -0.000397227 -0.0064771
4.28112e-08 -0.000397256 -0.00647705
3.52448e-08 -0.000397246 -0.00647702
3.20241e-08 -0.000397227 -0.006477
3.41069e-08 -0.000397207 -0.00647698
3.88792e-08 -0.00039719 -0.00647697
4.65057e-08 -0.000397174 -0.00647696
5.52394e-08 -0.000397157 -0.00647694
6.25985e-08 -0.000397141 -0.00647692
6.71785e-08 -0.000397125 -0.0064769
6.87331e-08 -0.000397107 -0.00647687
6.69453e-08 -0.00039709 -0.00647685
6.24775e-08 -0.000397073 -0.00647683
5.66046e-08 -0.000397056 -0.00647681
4.80173e-08 -0.000397038 -0.0064768
3.93687e-08 -0.00039702 -0.00647679
3.06203e-08 -0.000397009 -0.00647679
1.95543e-08 -0.000397007 -0.00647678
8.82958e-09 -0.000396998 -0.00647677
4.41479e-09 -0.000396956 -0.00647677
-6.84828e-10 -0.000454494 -0.00738338
2.4295e-08 -0.000454542 -0.00738337
3.91364e-08 -0.00045456 -0.00738334
5.07853e-08 -0.000454555 -0.0073833
5.76355e-08 -0.000454538 -0.00738328
6.31143e-08 -0.000454518 -0.00738327
7.05947e-08 -0.000454497 -0.00738326
7.85815e-08 -0.000454474 -0.00738325
8.54422e-08 -0.000454452 -0.00738324
9.00326e-08 -0.000454428 -0.00738323
9.12673e-08 -0.000454404 -0.00738322
8.86134e-08 -0.00045438 -0.0073832
8.41932e-08 -0.000454359 -0.00738318
7.96413e-08 -0.000454336 -0.00738317
7.17528e-08 -0.000454311 -0.00738317
5.70937e-08 -0.000454289 -0.00738318
3.5258e-08 -0.000454274 -0.00738318
2.47814e-08 -0.000454272 -0.00738318
4.52766e-08 -0.000454293 -0.00738316
2.26383e-08 -0.000454344 -0.00738312
-3.47666e-08 -0.000510631 -0.00840907
-1.52393e-08 -0.000510645 -0.0084091
1.4587e-08 -0.000510667 -0.0084091
4.56152e-08 -0.000510676 -0.00840908
6.61847e-08 -0.000510672 -0.00840905
8.10269e-08 -0.000510662 -0.00840904
9.39637e-08 -0.000510643 -0.00840903
1.04579e-07 -0.000510621 -0.00840903
1.13497e-07 -0.000510597 -0.00840903
1.19733e-07 -0.00051057 -0.00840903
1.20835e-07 -0.000510542 -0.00840902
1.16942e-07 -0.000510515 -0.00840902
1.12718e-07 -0.000510489 -0.00840901
1.09117e-07 -0.000510464 -0.00840901
1.00042e-07 -0.000510441 -0.00840902
8.02545e-08 -0.000510421 -0.00840902
4.80091e-08 -0.000510394 -0.00840902
5.74951e-09 -0.000510353 -0.00840903
-3.65819e-08 -0.000510303 -0.00840906
-1.82909e-08 -0.000510265 -0.00840912
-2.46316e-08 -0.000561511 -0.00954766
-2.39232e-08 -0.000561483 -0.0095477
-6.92005e-10 -0.000561481 -0.00954772
3.31309e-08 -0.00056148 -0.00954772
6.09363e-08 -0.000561479 -0.00954771
8.57966e-08 -0.000561474 -0.00954771
1.07046e-07 -0.000561462 -0.0095477
1.23997e-07 -0.000561446 -0.00954771
1.38638e-07 -0.000561426 -0.00954771
1.48675e-07 -0.000561401 -0.00954771
1.50497e-07 -0.000561375 -0.00954772
1.46352e-07 -0.000561349 -0.00954772
1.41522e-07 -0.000561323 -0.00954773
1.33807e-07 -0.000561298 -0.00954774
1.21197e-07 -0.000561282 -0.00954775
1.10467e-07 -0.000561274 -0.00954775
1.03461e-07 -0.000561271 -0.00954774
9.4129e-08 -0.000561265 -0.00954772
7.08827e-08 -0.000561247 -0.0095477
3.54413e-08 -0.000561221 -0.00954769
1.03184e-08 -0.000601038 -0.0107814
6.17564e-09 -0.000601008 -0.0107814
1.97789e-08 -0.000600989 -0.0107814
4.24121e-08 -0.000600972 -0.0107814
6.48891e-08 -0.000600962 -0.0107814
9.09275e-08 -0.000600952 -0.0107814
1.14772e-07 -0.00060094 -0.0107814
1.35689e-07 -0.000600928 -0.0107814
1.55659e-07 -0.000600913 -0.0107814
1.69502e-07 -0.000600895 -0.0107814
1.73346e-07 -0.000600874 -0.0107814
1.71142e-07 -0.000600852 -0.0107814
1.65683e-07 -0.000600828 -0.0107814
1.51388e-07 -0.000600803 -0.0107815
1.27885e-07 -0.000600779 -0.0107815
1.02709e-07 -0.00060076 -0.0107815
8.54878e-08 -0.000600749 -0.0107815
7.74953e-08 -0.000600746 -0.0107815
6.98913e-08 -0.000600752 -0.0107815
3.49457e-08 -0.00060076 -0.0107815
2.65214e-08 -0.000621206 -0.0120763
3.2694e-08 -0.000621194 -0.0120763
5.01468e-08 -0.000621177 -0.0120763
6.68288e-08 -0.00062116 -0.0120763
8.41983e-08 -0.000621147 -0.0120763
1.06802e-07 -0.000621133 -0.0120763
1.26757e-07 -0.00062112 -0.0120763
1.46163e-07 -0.000621109 -0.0120763
1.67377e-07 -0.000621096 -0.0120763
1.8278e-07 -0.000621081 -0.0120763
1.89106e-07 -0.000621065 -0.0120763
1.90191e-07 -0.000621047 -0.0120764
1.87648e-07 -0.000621029 -0.0120764
1.77505e-07 -0.000621011 -0.0120764
1.56114e-07 -0.000620992 -0.0120764
1.26562e-07 -0.000620972 -0.0120764
9.69761e-08 -0.000620951 -0.0120765
6.92087e-08 -0.000620935 -0.0120765
4.49089e-08 -0.000620927 -0.0120765
2.24544e-08 -0.000620925 -0.0120765
2.35069e-08 -0.000612704 -0.0133783
3.83679e-08 -0.000612695 -0.0133783
6.18804e-08 -0.000612685 -0.0133783
8.04144e-08 -0.000612678 -0.0133783
9.98731e-08 -0.000612671 -0.0133783
1.22048e-07 -0.000612662 -0.0133783
1.39262e-07 -0.000612653 -0.0133783
1.57862e-07 -0.000612644 -0.0133783
1.78998e-07 -0.000612632 -0.0133783
1.94365e-07 -0.000612618 -0.0133783
2.01332e-07 -0.000612605 -0.0133784
2.02606e-07 -0.000612591 -0.0133784
1.9969e-07 -0.000612575 -0.0133784
1.90695e-07 -0.000612562 -0.0133785
1.73086e-07 -0.000612552 -0.0133785
1.50126e-07 -0.00061254 -0.0133785
1.23775e-07 -0.000612526 -0.0133785
9.33945e-08 -0.000612513 -0.0133785
6.26465e-08 -0.000612503 -0.0133786
3.13233e-08 -0.000612494 -0.0133786
2.60818e-08 -0.000566367 -0.0146106
4.17214e-08 -0.000566339 -0.0146106
6.16552e-08 -0.000566331 -0.0146106
8.05315e-08 -0.000566328 -0.0146106
1.02548e-07 -0.000566326 -0.0146106
1.25519e-07 -0.000566322 -0.0146106
1.44142e-07 -0.00056632 -0.0146106
1.66773e-07 -0.000566316 -0.0146106
1.89101e-07 -0.000566307 -0.0146106
2.04408e-07 -0.000566298 -0.0146107
2.12075e-07 -0.000566289 -0.0146107
2.14514e-07 -0.000566277 -0.0146107
2.10162e-07 -0.000566262 -0.0146108
1.96289e-07 -0.000566251 -0.0146108
1.77519e-07 -0.000566244 -0.0146108
1.56123e-07 -0.000566234 -0.0146108
1.31604e-07 -0.000566224 -0.0146108
1.03622e-07 -0.00056622 -0.0146109
7.51474e-08 -0.000566219 -0.0146109
3.75737e-08 -0.000566218 -0.0146109
4.89187e-08 -0.000475789 -0.0156763
5.66448e-08 -0.000475744 -0.0156763
6.78562e-08 -0.000475737 -0.0156763
8.24158e-08 -0.000475731 -0.0156763
1.03171e-07 -0.000475728 -0.0156763
1.22981e-07 -0.000475725 -0.0156763
1.42684e-07 -0.000475729 -0.0156763
1.68602e-07 -0.000475729 -0.0156763
1.92544e-07 -0.000475724 -0.0156763
2.08881e-07 -0.000475718 -0.0156763
2.19509e-07 -0.000475714 -0.0156764
2.24953e-07 -0.000475706 -0.0156764
2.19234e-07 -0.000475694 -0.0156764
2.03039e-07 -0.000475685 -0.0156765
1.85634e-07 -0.000475677 -0.0156765
1.62429e-07 -0.000475665 -0.0156765
1.32654e-07 -0.000475657 -0.0156765
9.94734e-08 -0.000475659 -0.0156766
7.07398e-08 -0.000475664 -0.0156766
3.53699e-08 -0.000475666 -0.0156766
8.05435e-08 -0.000340835 -0.0164692
7.51425e-08 -0.000340807 -0.0164691
8.19857e-08 -0.000340792 -0.0164691
9.08802e-08 -0.000340783 -0.0164691
1.08166e-07 -0.00034078 -0.0164691
1.206e-07 -0.000340781 -0.0164691
1.3973e-07 -0.000340787 -0.0164691
1.67922e-07 -0.000340786 -0.0164691
1.93299e-07 -0.000340781 -0.0164691
2.09008e-07 -0.000340779 -0.0164692
2.21345e-07 -0.000340781 -0.0164692
2.30549e-07 -0.000340778 -0.0164692
2.2578e-07 -0.000340765 -0.0164693
2.1002e-07 -0.000340749 -0.0164693
1.96627e-07 -0.00034074 -0.0164693
1.70723e-07 -0.000340731 -0.0164693
1.33218e-07 -0.000340731 -0.0164694
9.38012e-08 -0.000340735 -0.0164694
6.57075e-08 -0.000340738 -0.0164694
3.28538e-08 -0.000340732 -0.0164694
8.58707e-08 -0.000170418 0.149772
8.94878e-08 -0.000170404 0.149772
9.5488e-08 -0.000170396 0.149772
9.91961e-08 -0.000170391 0.149772
1.09499e-07 -0.00017039 0.149772
1.17703e-07 -0.000170391 0.149772
1.38783e-07 -0.000170393 0.149772
1.70595e-07 -0.000170393 0.149772
1.93658e-07 -0.00017039 0.149772
2.04918e-07 -0.000170389 0.149772
2.17567e-07 -0.00017039 0.149772
2.36245e-07 -0.000170389 0.149772
2.40171e-07 -0.000170382 0.149772
2.22343e-07 -0.000170374 0.149772
2.05461e-07 -0.00017037 0.149772
1.71805e-07 -0.000170365 0.149772
1.29812e-07 -0.000170365 0.149772
9.18086e-08 -0.000170368 0.149772
7.14173e-08 -0.000170369 0.149772
3.57087e-08 -0.000170366 0.149772
-3.4276e-09 -5.22712e-05 -0.00282044
6.46001e-09 -5.22702e-05 -0.00282043
2.19385e-08 -5.22697e-05 -0.00282043
3.87703e-08 -5.22693e-05 -0.00282042
5.43289e-08 -5.22686e-05 -0.00282041
6.71611e-08 -5.22675e-05 -0.00282038
7.59969e-08 -5.22666e-05 -0.00282035
8.02294e-08 -5.22662e-05 -0.00282031
8.04621e-08 -5.22664e-05 -0.00282027
7.80622e-08 -5.22664e-05 -0.00282021
7.43823e-08 -5.2265e-05 -0.00282016
7.08917e-08 -5.22618e-05 -0.0028201
6.9995e-08 -5.22579e-05 -0.00282004
7.41788e-08 -5.22548e-05 -0.00281999
8.21059e-08 -5.22536e-05 -0.00281993
8.75408e-08 -5.22556e-05 -0.00281989
8.71831e-08 -5.22597e-05 -0.00281986
8.44566e-08 -5.22632e-05 -0.00281983
7.99347e-08 -5.22683e-05 -0.00281982
3.99673e-08 -5.2279e-05 -0.00281981
-2.45077e-09 -0.000131761 -0.00288895
7.53386e-09 -0.000131761 -0.00288893
2.286e-08 -0.00013176 -0.00288893
3.99276e-08 -0.00013176 -0.00288892
5.59611e-08 -0.000131761 -0.0028889
6.89087e-08 -0.000131762 -0.00288888
7.72804e-08 -0.000131764 -0.00288885
8.06615e-08 -0.000131766 -0.00288881
8.06509e-08 -0.000131768 -0.00288876
7.95853e-08 -0.000131767 -0.00288871
7.83384e-08 -0.000131763 -0.00288865
7.67602e-08 -0.000131756 -0.00288859
7.60708e-08 -0.000131748 -0.00288853
7.83339e-08 -0.000131744 -0.00288847
8.22075e-08 -0.000131746 -0.00288842
8.34742e-08 -0.000131754 -0.00288838
8.17122e-08 -0.000131764 -0.00288834
7.65599e-08 -0.000131774 -0.00288832
6.53154e-08 -0.000131788 -0.00288831
3.26577e-08 -0.000131804 -0.0028883
-2.19609e-09 -0.000227054 -0.00302743
8.16095e-09 -0.000227052 -0.0030274
2.28825e-08 -0.000227051 -0.0030274
3.90412e-08 -0.000227052 -0.00302739
5.3706e-08 -0.000227056 -0.00302737
6.53071e-08 -0.000227061 -0.00302734
7.29115e-08 -0.000227066 -0.00302731
7.67608e-08 -0.00022707 -0.00302727
7.92663e-08 -0.000227071 -0.00302722
8.25148e-08 -0.00022707 -0.00302717
8.55029e-08 -0.000227066 -0.00302711
8.58441e-08 -0.000227059 -0.00302705
8.33299e-08 -0.000227053 -0.00302699
7.97057e-08 -0.000227049 -0.00302694
7.57725e-08 -0.000227052 -0.00302689
7.1877e-08 -0.000227062 -0.00302684
6.75858e-08 -0.000227075 -0.00302681
5.84622e-08 -0.000227089 -0.00302679
4.5971e-08 -0.000227103 -0.00302678
2.29855e-08 -0.000227112 -0.00302676
-7.76146e-11 -0.000333499 -0.00323885
9.80292e-09 -0.000333496 -0.00323882
2.22024e-08 -0.000333495 -0.0032388
3.52324e-08 -0.000333497 -0.00323879
4.73921e-08 -0.000333503 -0.00323877
5.81787e-08 -0.000333511 -0.00323874
6.68539e-08 -0.000333518 -0.00323871
7.30836e-08 -0.000333522 -0.00323867
7.84121e-08 -0.000333523 -0.00323862
8.42306e-08 -0.000333523 -0.00323857
8.91804e-08 -0.000333522 -0.00323851
9.05236e-08 -0.00033352 -0.00323846
8.69431e-08 -0.000333518 -0.0032384
7.91481e-08 -0.000333518 -0.00323835
6.96442e-08 -0.000333522 -0.0032383
6.15035e-08 -0.000333531 -0.00323826
5.33368e-08 -0.000333542 -0.00323823
4.42764e-08 -0.000333553 -0.00323821
3.78561e-08 -0.00033356 -0.00323819
1.89281e-08 -0.000333563 -0.00323817
1.27606e-09 -0.000449774 -0.00352762
1.13475e-08 -0.000449773 -0.0035276
2.11789e-08 -0.000449772 -0.00352758
3.03506e-08 -0.000449774 -0.00352756
3.98826e-08 -0.000449779 -0.00352754
5.019e-08 -0.000449786 -0.00352751
6.05008e-08 -0.000449792 -0.00352748
6.92844e-08 -0.000449796 -0.00352744
7.63105e-08 -0.000449797 -0.00352739
8.22957e-08 -0.000449798 -0.00352735
8.68129e-08 -0.000449799 -0.0035273
8.80484e-08 -0.000449802 -0.00352724
8.40306e-08 -0.000449805 -0.00352719
7.46996e-08 -0.00044981 -0.00352714
6.35687e-08 -0.000449816 -0.0035271
5.3869e-08 -0.000449823 -0.00352707
4.52272e-08 -0.00044983 -0.00352704
4.0449e-08 -0.000449836 -0.00352701
3.77581e-08 -0.000449842 -0.00352698
1.88791e-08 -0.000449851 -0.00352696
2.72934e-10 -0.000576089 -0.00389957
1.13415e-08 -0.000576092 -0.00389955
2.06526e-08 -0.000576093 -0.00389954
2.80173e-08 -0.000576094 -0.00389952
3.57139e-08 -0.000576096 -0.0038995
4.52992e-08 -0.000576099 -0.00389947
5.65203e-08 -0.000576103 -0.00389943
6.68359e-08 -0.000576105 -0.0038994
7.4261e-08 -0.000576105 -0.00389936
7.90161e-08 -0.000576106 -0.00389931
8.17122e-08 -0.000576108 -0.00389927
8.1355e-08 -0.000576111 -0.00389922
7.60345e-08 -0.000576116 -0.00389917
6.65975e-08 -0.000576123 -0.00389913
5.72246e-08 -0.000576129 -0.00389909
4.90944e-08 -0.000576133 -0.00389905
4.22694e-08 -0.000576138 -0.00389902
3.58847e-08 -0.000576147 -0.00389899
2.82447e-08 -0.000576162 -0.00389896
1.41223e-08 -0.000576181 -0.00389894
-2.20684e-09 -0.000713176 -0.00436177
7.86835e-09 -0.000713179 -0.00436176
1.909e-08 -0.000713184 -0.00436175
2.79852e-08 -0.000713185 -0.00436173
3.57228e-08 -0.000713184 -0.00436171
4.48739e-08 -0.000713183 -0.00436168
5.60322e-08 -0.000713183 -0.00436165
6.65602e-08 -0.000713182 -0.00436161
7.39047e-08 -0.000713182 -0.00436158
7.79656e-08 -0.000713181 -0.00436154
7.91838e-08 -0.00071318 -0.00436149
7.64887e-08 -0.00071318 -0.00436145
6.927e-08 -0.000713183 -0.00436141
6.05817e-08 -0.000713187 -0.00436137
5.34064e-08 -0.00071319 -0.00436134
4.51257e-08 -0.000713193 -0.0043613
3.46651e-08 -0.000713201 -0.00436127
2.05948e-08 -0.000713214 -0.00436124
5.32205e-09 -0.000713231 -0.00436122
2.66102e-09 -0.000713254 -0.00436121
-4.23925e-09 -0.000861609 -0.00492234
2.85043e-09 -0.000861607 -0.00492233
1.6265e-08 -0.000861609 -0.00492232
2.84835e-08 -0.000861609 -0.00492231
3.83409e-08 -0.000861607 -0.00492229
4.82273e-08 -0.000861604 -0.00492226
5.90192e-08 -0.000861602 -0.00492223