# vtk DataFile Version 2.0 
Visualization 
ASCII 
DATASET STRUCTURED_GRID 
DIMENSIONS 21 21 11
POINTS 4851 float
-0.1 -0.1 -0.1
0 -0.1 -0.1
0.1 -0.1 -0.1
0.2 -0.1 -0.1
0.3 -0.1 -0.1
0.4 -0.1 -0.1
0.5 -0.1 -0.1
0.6 -0.1 -0.1
0.7 -0.1 -0.1
0.8 -0.1 -0.1
0.9 -0.1 -0.1
1 -0.1 -0.1
1.1 -0.1 -0.1
1.2 -0.1 -0.1
1.3 -0.1 -0.1
1.4 -0.1 -0.1
1.5 -0.1 -0.1
1.6 -0.1 -0.1
1.7 -0.1 -0.1
1.8 -0.1 -0.1
1.9 -0.1 -0.1
-0.1 0 -0.1
0 0 -0.1
0.1 0 -0.1
0.2 0 -0.1
0.3 0 -0.1
0.4 0 -0.1
0.5 0 -0.1
0.6 0 -0.1
0.7 0 -0.1
0.8 0 -0.1
0.9 0 -0.1
1 0 -0.1
1.1 0 -0.1
1.2 0 -0.1
1.3 0 -0.1
1.4 0 -0.1
1.5 0 -0.1
1.6 0 -0.1
1.7 0 -0.1
1.8 0 -0.1
1.9 0 -0.1
-0.1 0.1 -0.1
0 0.1 -0.1
0.1 0.1 -0.1
0.2 0.1 -0.1
0.3 0.1 -0.1
0.4 0.1 -0.1
0.5 0.1 -0.1
0.6 0.1 -0.1
0.7 0.1 -0.1
0.8 0.1 -0.1
0.9 0.1 -0.1
1 0.1 -0.1
1.1 0.1 -0.1
1.2 0.1 -0.1
1.3 0.1 -0.1
1.4 0.1 -0.1
1.5 0.1 -0.1
1.6 0.1 -0.1
1.7 0.1 -0.1
1.8 0.1 -0.1
1.9 0.1 -0.1
-0.1 0.2 -0.1
0 0.2 -0.1
0.1 0.2 -0.1
0.2 0.2 -0.1
0.3 0.2 -0.1
0.4 0.2 -0.1
0.5 0.2 -0.1
0.6 0.2 -0.1
0.7 0.2 -0.1
0.8 0.2 -0.1
0.9 0.2 -0.1
1 0.2 -0.1
1.1 0.2 -0.1
1.2 0.2 -0.1
1.3 0.2 -0.1
1.4 0.2 -0.1
1.5 0.2 -0.1
1.6 0.2 -0.1
1.7 0.2 -0.1
1.8 0.2 -0.1
1.9 0.2 -0.1
-0.1 0.3 -0.1
0 0.3 -0.1
0.1 0.3 -0.1
0.2 0.3 -0.1
0.3 0.3 -0.1
0.4 0.3 -0.1
0.5 0.3 -0.1
0.6 0.3 -0.1
0.7 0.3 -0.1
0.8 0.3 -0.1
0.9 0.3 -0.1
1 0.3 -0.1
1.1 0.3 -0.1
1.2 0.3 -0.1
1.3 0.3 -0.1
1.4 0.3 -0.1
1.5 0.3 -0.1
1.6 0.3 -0.1
1.7 0.3 -0.1
1.8 0.3 -0.1
1.9 0.3 -0.1
-0.1 0.4 -0.1
0 0.4 -0.1
0.1 0.4 -0.1
0.2 0.4 -0.1
0.3 0.4 -0.1
0.4 0.4 -0.1
0.5 0.4 -0.1
0.6 0.4 -0.1
0.7 0.4 -0.1
0.8 0.4 -0.1
0.9 0.4 -0.1
1 0.4 -0.1
1.1 0.4 -0.1
1.2 0.4 -0.1
1.3 0.4 -0.1
1.4 0.4 -0.1
1.5 0.4 -0.1
1.6 0.4 -0.1
1.7 0.4 -0.1
1.8 0.4 -0.1
1.9 0.4 -0.1
-0.1 0.5 -0.1
0 0.5 -0.1
0.1 0.5 -0.1
0.2 0.5 -0.1
0.3 0.5 -0.1
0.4 0.5 -0.1
0.5 0.5 -0.1
0.6 0.5 -0.1
0.7 0.5 -0.1
0.8 0.5 -0.1
0.9 0.5 -0.1
1 0.5 -0.1
1.1 0.5 -0.1
1.2 0.5 -0.1
1.3 0.5 -0.1
1.4 0.5 -0.1
1.5 0.5 -0.1
1.6 0.5 -0.1
1.7 0.5 -0.1
1.8 0.5 -0.1
1.9 0.5 -0.1
-0.1 0.6 -0.1
0 0.6 -0.1
0.1 0.6 -0.1
0.2 0.6 -0.1
0.3 0.6 -0.1
0.4 0.6 -0.1
0.5 0.6 -0.1
0.6 0.6 -0.1
0.7 0.6 -0.1
0.8 0.6 -0.1
0.9 0.6 -0.1
1 0.6 -0.1
1.1 0.6 -0.1
1.2 0.6 -0.1
1.3 0.6 -0.1
1.4 0.6 -0.1
1.5 0.6 -0.1
1.6 0.6 -0.1
1.7 0.6 -0.1
1.8 0.6 -0.1
1.9 0.6 -0.1
-0.1 0.7 -0.1
0 0.7 -0.1
0.1 0.7 -0.1
0.2 0.7 -0.1
0.3 0.7 -0.1
0.4 0.7 -0.1
0.5 0.7 -0.1
0.6 0.7 -0.1
0.7 0.7 -0.1
0.8 0.7 -0.1
0.9 0.7 -0.1
1 0.7 -0.1
1.1 0.7 -0.1
1.2 0.7 -0.1
1.3 0.7 -0.1
1.4 0.7 -0.1
1.5 0.7 -0.1
1.6 0.7 -0.1
1.7 0.7 -0.1
1.8 0.7 -0.1
1.9 0.7 -0.1
-0.1 0.8 -0.1
0 0.8 -0.1
0.1 0.8 -0.1
0.2 0.8 -0.1
0.3 0.8 -0.1
0.4 0.8 -0.1
0.5 0.8 -0.1
0.6 0.8 -0.1
0.7 0.8 -0.1
0.8 0.8 -0.1
0.9 0.8 -0.1
1 0.8 -0.1
1.1 0.8 -0.1
1.2 0.8 -0.1
1.3 0.8 -0.1
1.4 0.8 -0.1
1.5 0.8 -0.1
1.6 0.8 -0.1
1.7 0.8 -0.1
1.8 0.8 -0.1
1.9 0.8 -0.1
-0.1 0.9 -0.1
0 0.9 -0.1
0.1 0.9 -0.1
0.2 0.9 -0.1
0.3 0.9 -0.1
0.4 0.9 -0.1
0.5 0.9 -0.1
0.6 0.9 -0.1
0.7 0.9 -0.1
0.8 0.9 -0.1
0.9 0.9 -0.1
1 0.9 -0.1
1.1 0.9 -0.1
1.2 0.9 -0.1
1.3 0.9 -0.1
1.4 0.9 -0.1
1.5 0.9 -0.1
1.6 0.9 -0.1
1.7 0.9 -0.1
1.8 0.9 -0.1
1.9 0.9 -0.1
-0.1 1 -0.1
0 1 -0.1
0.1 1 -0.1
0.2 1 -0.1
0.3 1 -0.1
0.4 1 -0.1
0.5 1 -0.1
0.6 1 -0.1
0.7 1 -0.1
0.8 1 -0.1
0.9 1 -0.1
1 1 -0.1
1.1 1 -0.1
1.2 1 -0.1
1.3 1 -0.1
1.4 1 -0.1
1.5 1 -0.1
1.6 1 -0.1
1.7 1 -0.1
1.8 1 -0.1
1.9 1 -0.1
-0.1 1.1 -0.1
0 1.1 -0.1
0.1 1.1 -0.1
0.2 1.1 -0.1
0.3 1.1 -0.1
0.4 1.1 -0.1
0.5 1.1 -0.1
0.6 1.1 -0.1
0.7 1.1 -0.1
0.8 1.1 -0.1
0.9 1.1 -0.1
1 1.1 -0.1
1.1 1.1 -0.1
1.2 1.1 -0.1
1.3 1.1 -0.1
1.4 1.1 -0.1
1.5 1.1 -0.1
1.6 1.1 -0.1
1.7 1.1 -0.1
1.8 1.1 -0.1
1.9 1.1 -0.1
-0.1 1.2 -0.1
0 1.2 -0.1
0.1 1.2 -0.1
0.2 1.2 -0.1
0.3 1.2 -0.1
0.4 1.2 -0.1
0.5 1.2 -0.1
0.6 1.2 -0.1
0.7 1.2 -0.1
0.8 1.2 -0.1
0.9 1.2 -0.1
1 1.2 -0.1
1.1 1.2 -0.1
1.2 1.2 -0.1
1.3 1.2 -0.1
1.4 1.2 -0.1
1.5 1.2 -0.1
1.6 1.2 -0.1
1.7 1.2 -0.1
1.8 1.2 -0.1
1.9 1.2 -0.1
-0.1 1.3 -0.1
0 1.3 -0.1
0.1 1.3 -0.1
0.2 1.3 -0.1
0.3 1.3 -0.1
0.4 1.3 -0.1
0.5 1.3 -0.1
0.6 1.3 -0.1
0.7 1.3 -0.1
0.8 1.3 -0.1
0.9 1.3 -0.1
1 1.3 -0.1
1.1 1.3 -0.1
1.2 1.3 -0.1
1.3 1.3 -0.1
1.4 1.3 -0.1
1.5 1.3 -0.1
1.6 1.3 -0.1
1.7 1.3 -0.1
1.8 1.3 -0.1
1.9 1.3 -0.1
-0.1 1.4 -0.1
0 1.4 -0.1
0.1 1.4 -0.1
0.2 1.4 -0.1
0.3 1.4 -0.1
0.4 1.4 -0.1
0.5 1.4 -0.1
0.6 1.4 -0.1
0.7 1.4 -0.1
0.8 1.4 -0.1
0.9 1.4 -0.1
1 1.4 -0.1
1.1 1.4 -0.1
1.2 1.4 -0.1
1.3 1.4 -0.1
1.4 1.4 -0.1
1.5 1.4 -0.1
1.6 1.4 -0.1
1.7 1.4 -0.1
1.8 1.4 -0.1
1.9 1.4 -0.1
-0.1 1.5 -0.1
0 1.5 -0.1
0.1 1.5 -0.1
0.2 1.5 -0.1
0.3 1.5 -0.1
0.4 1.5 -0.1
0.5 1.5 -0.1
0.6 1.5 -0.1
0.7 1.5 -0.1
0.8 1.5 -0.1
0.9 1.5 -0.1
1 1.5 -0.1
1.1 1.5 -0.1
1.2 1.5 -0.1
1.3 1.5 -0.1
1.4 1.5 -0.1
1.5 1.5 -0.1
1.6 1.5 -0.1
1.7 1.5 -0.1
1.8 1.5 -0.1
1.9 1.5 -0.1
-0.1 1.6 -0.1
0 1.6 -0.1
0.1 1.6 -0.1
0.2 1.6 -0.1
0.3 1.6 -0.1
0.4 1.6 -0.1
0.5 1.6 -0.1
0.6 1.6 -0.1
0.7 1.6 -0.1
0.8 1.6 -0.1
0.9 1.6 -0.1
1 1.6 -0.1
1.1 1.6 -0.1
1.2 1.6 -0.1
1.3 1.6 -0.1
1.4 1.6 -0.1
1.5 1.6 -0.1
1.6 1.6 -0.1
1.7 1.6 -0.1
1.8 1.6 -0.1
1.9 1.6 -0.1
-0.1 1.7 -0.1
0 1.7 -0.1
0.1 1.7 -0.1
0.2 1.7 -0.1
0.3 1.7 -0.1
0.4 1.7 -0.1
0.5 1.7 -0.1
0.6 1.7 -0.1
0.7 1.7 -0.1
0.8 1.7 -0.1
0.9 1.7 -0.1
1 1.7 -0.1
1.1 1.7 -0.1
1.2 1.7 -0.1
1.3 1.7 -0.1
1.4 1.7 -0.1
1.5 1.7 -0.1
1.6 1.7 -0.1
1.7 1.7 -0.1
1.8 1.7 -0.1
1.9 1.7 -0.1
-0.1 1.8 -0.1
0 1.8 -0.1
0.1 1.8 -0.1
0.2 1.8 -0.1
0.3 1.8 -0.1
0.4 1.8 -0.1
0.5 1.8 -0.1
0.6 1.8 -0.1
0.7 1.8 -0.1
0.8 1.8 -0.1
0.9 1.8 -0.1
1 1.8 -0.1
1.1 1.8 -0.1
1.2 1.8 -0.1
1.3 1.8 -0.1
1.4 1.8 -0.1
1.5 1.8 -0.1
1.6 1.8 -0.1
1.7 1.8 -0.1
1.8 1.8 -0.1
1.9 1.8 -0.1
-0.1 1.9 -0.1
0 1.9 -0.1
0.1 1.9 -0.1
0.2 1.9 -0.1
0.3 1.9 -0.1
0.4 1.9 -0.1
0.5 1.9 -0.1
0.6 1.9 -0.1
0.7 1.9 -0.1
0.8 1.9 -0.1
0.9 1.9 -0.1
1 1.9 -0.1
1.1 1.9 -0.1
1.2 1.9 -0.1
1.3 1.9 -0.1
1.4 1.9 -0.1
1.5 1.9 -0.1
1.6 1.9 -0.1
1.7 1.9 -0.1
1.8 1.9 -0.1
1.9 1.9 -0.1
-0.1 -0.1 0
0 -0.1 0
0.1 -0.1 0
0.2 -0.1 0
0.3 -0.1 0
0.4 -0.1 0
0.5 -0.1 0
0.6 -0.1 0
0.7 -0.1 0
0.8 -0.1 0
0.9 -0.1 0
1 -0.1 0
1.1 -0.1 0
1.2 -0.1 0
1.3 -0.1 0
1.4 -0.1 0
1.5 -0.1 0
1.6 -0.1 0
1.7 -0.1 0
1.8 -0.1 0
1.9 -0.1 0
-0.1 0 0
0 0 0
0.1 0 0
0.2 0 0
0.3 0 0
0.4 0 0
0.5 0 0
0.6 0 0
0.7 0 0
0.8 0 0
0.9 0 0
1 0 0
1.1 0 0
1.2 0 0
1.3 0 0
1.4 0 0
1.5 0 0
1.6 0 0
1.7 0 0
1.8 0 0
1.9 0 0
-0.1 0.1 0
0 0.1 0
0.1 0.1 0
0.2 0.1 0
0.3 0.1 0
0.4 0.1 0
0.5 0.1 0
0.6 0.1 0
0.7 0.1 0
0.8 0.1 0
0.9 0.1 0
1 0.1 0
1.1 0.1 0
1.2 0.1 0
1.3 0.1 0
1.4 0.1 0
1.5 0.1 0
1.6 0.1 0
1.7 0.1 0
1.8 0.1 0
1.9 0.1 0
-0.1 0.2 0
0 0.2 0
0.1 0.2 0
0.2 0.2 0
0.3 0.2 0
0.4 0.2 0
0.5 0.2 0
0.6 0.2 0
0.7 0.2 0
0.8 0.2 0
0.9 0.2 0
1 0.2 0
1.1 0.2 0
1.2 0.2 0
1.3 0.2 0
1.4 0.2 0
1.5 0.2 0
1.6 0.2 0
1.7 0.2 0
1.8 0.2 0
1.9 0.2 0
-0.1 0.3 0
0 0.3 0
0.1 0.3 0
0.2 0.3 0
0.3 0.3 0
0.4 0.3 0
0.5 0.3 0
0.6 0.3 0
0.7 0.3 0
0.8 0.3 0
0.9 0.3 0
1 0.3 0
1.1 0.3 0
1.2 0.3 0
1.3 0.3 0
1.4 0.3 0
1.5 0.3 0
1.6 0.3 0
1.7 0.3 0
1.8 0.3 0
1.9 0.3 0
-0.1 0.4 0
0 0.4 0
0.1 0.4 0
0.2 0.4 0
0.3 0.4 0
0.4 0.4 0
0.5 0.4 0
0.6 0.4 0
0.7 0.4 0
0.8 0.4 0
0.9 0.4 0
1 0.4 0
1.1 0.4 0
1.2 0.4 0
1.3 0.4 0
1.4 0.4 0
1.5 0.4 0
1.6 0.4 0
1.7 0.4 0
1.8 0.4 0
1.9 0.4 0
-0.1 0.5 0
0 0.5 0
0.1 0.5 0
0.2 0.5 0
0.3 0.5 0
0.4 0.5 0
0.5 0.5 0
0.6 0.5 0
0.7 0.5 0
0.8 0.5 0
0.9 0.5 0
1 0.5 0
1.1 0.5 0
1.2 0.5 0
1.3 0.5 0
1.4 0.5 0
1.5 0.5 0
1.6 0.5 0
1.7 0.5 0
1.8 0.5 0
1.9 0.5 0
-0.1 0.6 0
0 0.6 0
0.1 0.6 0
0.2 0.6 0
0.3 0.6 0
0.4 0.6 0
0.5 0.6 0
0.6 0.6 0
0.7 0.6 0
0.8 0.6 0
0.9 0.6 0
1 0.6 0
1.1 0.6 0
1.2 0.6 0
1.3 0.6 0
1.4 0.6 0
1.5 0.6 0
1.6 0.6 0
1.7 0.6 0
1.8 0.6 0
1.9 0.6 0
-0.1 0.7 0
0 0.7 0
0.1 0.7 0
0.2 0.7 0
0.3 0.7 0
0.4 0.7 0
0.5 0.7 0
0.6 0.7 0
0.7 0.7 0
0.8 0.7 0
0.9 0.7 0
1 0.7 0
1.1 0.7 0
1.2 0.7 0
1.3 0.7 0
1.4 0.7 0
1.5 0.7 0
1.6 0.7 0
1.7 0.7 0
1.8 0.7 0
1.9 0.7 0
-0.1 0.8 0
0 0.8 0
0.1 0.8 0
0.2 0.8 0
0.3 0.8 0
0.4 0.8 0
0.5 0.8 0
0.6 0.8 0
0.7 0.8 0
0.8 0.8 0
0.9 0.8 0
1 0.8 0
1.1 0.8 0
1.2 0.8 0
1.3 0.8 0
1.4 0.8 0
1.5 0.8 0
1.6 0.8 0
1.7 0.8 0
1.8 0.8 0
1.9 0.8 0
-0.1 0.9 0
0 0.9 0
0.1 0.9 0
0.2 0.9 0
0.3 0.9 0
0.4 0.9 0
0.5 0.9 0
0.6 0.9 0
0.7 0.9 0
0.8 0.9 0
0.9 0.9 0
1 0.9 0
1.1 0.9 0
1.2 0.9 0
1.3 0.9 0
1.4 0.9 0
1.5 0.9 0
1.6 0.9 0
1.7 0.9 0
1.8 0.9 0
1.9 0.9 0
-0.1 1 0
0 1 0
0.1 1 0
0.2 1 0
0.3 1 0
0.4 1 0
0.5 1 0
0.6 1 0
0.7 1 0
0.8 1 0
0.9 1 0
1 1 0
1.1 1 0
1.2 1 0
1.3 1 0
1.4 1 0
1.5 1 0
1.6 1 0
1.7 1 0
1.8 1 0
1.9 1 0
-0.1 1.1 0
0 1.1 0
0.1 1.1 0
0.2 1.1 0
0.3 1.1 0
0.4 1.1 0
0.5 1.1 0
0.6 1.1 0
0.7 1.1 0
0.8 1.1 0
0.9 1.1 0
1 1.1 0
1.1 1.1 0
1.2 1.1 0
1.3 1.1 0
1.4 1.1 0
1.5 1.1 0
1.6 1.1 0
1.7 1.1 0
1.8 1.1 0
1.9 1.1 0
-0.1 1.2 0
0 1.2 0
0.1 1.2 0
0.2 1.2 0
0.3 1.2 0
0.4 1.2 0
0.5 1.2 0
0.6 1.2 0
0.7 1.2 0
0.8 1.2 0
0.9 1.2 0
1 1.2 0
1.1 1.2 0
1.2 1.2 0
1.3 1.2 0
1.4 1.2 0
1.5 1.2 0
1.6 1.2 0
1.7 1.2 0
1.8 1.2 0
1.9 1.2 0
-0.1 1.3 0
0 1.3 0
0.1 1.3 0
0.2 1.3 0
0.3 1.3 0
0.4 1.3 0
0.5 1.3 0
0.6 1.3 0
0.7 1.3 0
0.8 1.3 0
0.9 1.3 0
1 1.3 0
1.1 1.3 0
1.2 1.3 0
1.3 1.3 0
1.4 1.3 0
1.5 1.3 0
1.6 1.3 0
1.7 1.3 0
1.8 1.3 0
1.9 1.3 0
-0.1 1.4 0
0 1.4 0
0.1 1.4 0
0.2 1.4 0
0.3 1.4 0
0.4 1.4 0
0.5 1.4 0
0.6 1.4 0
0.7 1.4 0
0.8 1.4 0
0.9 1.4 0
1 1.4 0
1.1 1.4 0
1.2 1.4 0
1.3 1.4 0
1.4 1.4 0
1.5 1.4 0
1.6 1.4 0
1.7 1.4 0
1.8 1.4 0
1.9 1.4 0
-0.1 1.5 0
0 1.5 0
0.1 1.5 0
0.2 1.5 0
0.3 1.5 0
0.4 1.5 0
0.5 1.5 0
0.6 1.5 0
0.7 1.5 0
0.8 1.5 0
0.9 1.5 0
1 1.5 0
1.1 1.5 0
1.2 1.5 0
1.3 1.5 0
1.4 1.5 0
1.5 1.5 0
1.6 1.5 0
1.7 1.5 0
1.8 1.5 0
1.9 1.5 0
-0.1 1.6 0
0 1.6 0
0.1 1.6 0
0.2 1.6 0
0.3 1.6 0
0.4 1.6 0
0.5 1.6 0
0.6 1.6 0
0.7 1.6 0
0.8 1.6 0
0.9 1.6 0
1 1.6 0
1.1 1.6 0
1.2 1.6 0
1.3 1.6 0
1.4 1.6 0
1.5 1.6 0
1.6 1.6 0
1.7 1.6 0
1.8 1.6 0
1.9 1.6 0
-0.1 1.7 0
0 1.7 0
0.1 1.7 0
0.2 1.7 0
0.3 1.7 0
0.4 1.7 0
0.5 1.7 0
0.6 1.7 0
0.7 1.7 0
0.8 1.7 0
0.9 1.7 0
1 1.7 0
1.1 1.7 0
1.2 1.7 0
1.3 1.7 0
1.4 1.7 0
1.5 1.7 0
1.6 1.7 0
1.7 1.7 0
1.8 1.7 0
1.9 1.7 0
-0.1 1.8 0
0 1.8 0
0.1 1.8 0
0.2 1.8 0
0.3 1.8 0
0.4 1.8 0
0.5 1.8 0
0.6 1.8 0
0.7 1.8 0
0.8 1.8 0
0.9 1.8 0
1 1.8 0
1.1 1.8 0
1.2 1.8 0
1.3 1.8 0
1.4 1.8 0
1.5 1.8 0
1.6 1.8 0
1.7 1.8 0
1.8 1.8 0
1.9 1.8 0
-0.1 1.9 0
0 1.9 0
0.1 1.9 0
0.2 1.9 0
0.3 1.9 0
0.4 1.9 0
0.5 1.9 0
0.6 1.9 0
0.7 1.9 0
0.8 1.9 0
0.9 1.9 0
1 1.9 0
1.1 1.9 0
1.2 1.9 0
1.3 1.9 0
1.4 1.9 0
1.5 1.9 0
1.6 1.9 0
1.7 1.9 0
1.8 1.9 0
[...]
CELL_DATA 4000
VECTORS velocity double 
-2.59419e-05 0.000284854 -0.000258912
-2.71267e-05 0.000347032 -0.000301929
-2.47349e-05 0.000353481 -0.000309918
-1.7901e-05 0.000354661 -0.000314485
-6.60525e-06 0.000354958 -0.0003171
8.08065e-06 0.000355185 -0.00031858
2.48282e-05 0.00035558 -0.000319371
4.23037e-05 0.000356218 -0.00031962
5.90964e-05 0.000357089 -0.000319383
7.37286e-05 0.000358078 -0.000318638
8.47896e-05 0.000359111 -0.000317292
9.10159e-05 0.000360139 -0.000315207
9.11605e-05 0.000361019 -0.00031234
8.42684e-05 0.000361529 -0.000308767
6.98552e-05 0.000361345 -0.000304694
4.82415e-05 0.000360239 -0.000300319
2.07161e-05 0.00035807 -0.000295817
-1.06042e-05 0.000354557 -0.000291376
-4.29567e-05 0.000347972 -0.000285796
-2.14784e-05 0.000295832 -0.00024259
-1.5197e-05 0.00083069 -0.000331332
-1.70083e-05 0.0010059 -0.000398025
-1.68764e-05 0.00102445 -0.000411136
-1.12983e-05 0.00102802 -0.000417932
3.629e-07 0.00102873 -0.000421677
1.70874e-05 0.00102898 -0.000423677
3.73633e-05 0.00102958 -0.000424632
5.95082e-05 0.00103075 -0.000424806
8.16189e-05 0.00103244 -0.000424321
0.000101767 0.00103451 -0.000423117
0.00011807 0.00103685 -0.000421043
0.000128664 0.00103925 -0.000417913
0.000131629 0.00104127 -0.000413757
0.000125281 0.00104231 -0.000408714
0.000108655 0.00104169 -0.000402931
8.18186e-05 0.00103882 -0.000396647
4.589e-05 0.00103308 -0.000390197
3.39277e-06 0.00102349 -0.000383872
-3.99122e-05 0.00100297 -0.000375822
-1.99561e-05 0.000838715 -0.000315655
-2.35425e-06 0.0015487 -0.000396183
9.06494e-07 0.00189416 -0.00047909
1.48493e-06 0.00193229 -0.000495461
6.03605e-06 0.00193978 -0.000503945
1.65295e-05 0.00194124 -0.000508592
3.24687e-05 0.00194149 -0.000511019
5.24483e-05 0.00194205 -0.00051212
7.47148e-05 0.00194338 -0.000512261
9.72911e-05 0.00194551 -0.000511599
0.000118183 0.00194833 -0.000510016
0.000135317 0.00195165 -0.000507347
0.000146468 0.00195507 -0.00050345
0.000149311 0.00195781 -0.000498325
0.000141784 0.00195889 -0.000492102
0.000122604 0.00195728 -0.00048492
9.14628e-05 0.00195194 -0.000477043
4.91687e-05 0.0019416 -0.000468983
-1.77095e-06 0.00192409 -0.000461231
-5.26034e-05 0.0018827 -0.000451829
-2.63017e-05 0.00155085 -0.000379484
1.21459e-05 0.00242074 -0.000479355
2.28176e-05 0.00299766 -0.000580169
2.49177e-05 0.00306464 -0.000599668
2.86515e-05 0.00307795 -0.000609932
3.78476e-05 0.00308078 -0.00061561
5.2686e-05 0.00308111 -0.000618579
7.19301e-05 0.00308144 -0.000619909
9.38194e-05 0.00308257 -0.000620088
0.000116349 0.00308469 -0.000619291
0.000137413 0.00308774 -0.00061737
0.000154706 0.00309147 -0.000614146
0.000165597 0.00309522 -0.000609489
0.000167349 0.00309796 -0.000603348
0.000157564 0.0030984 -0.000595763
0.000134575 0.0030951 -0.000586975
9.75457e-05 0.00308638 -0.000577342
4.69672e-05 0.00307034 -0.000567563
-1.40928e-05 0.00304327 -0.000558284
-7.25257e-05 0.00297296 -0.000547514
-3.62628e-05 0.00241485 -0.00046066
2.89416e-05 0.00345037 -0.000576704
4.91087e-05 0.00432474 -0.000697148
5.35592e-05 0.00443164 -0.000719625
5.65198e-05 0.00445317 -0.00073169
6.4065e-05 0.00445813 -0.000738476
7.72917e-05 0.00445874 -0.000742057
9.52426e-05 0.00445869 -0.000743701
0.000116207 0.00445929 -0.000743998
0.000138201 0.00446095 -0.000743125
0.00015898 0.00446367 -0.000740939
0.0001759 0.00446711 -0.000737241
0.000185987 0.00447045 -0.000731832
0.000186114 0.00447247 -0.000724651
0.000173423 0.00447153 -0.000715658
0.000145655 0.00446569 -0.000705157
0.0001015 0.00445265 -0.000693629
4.13268e-05 0.00442977 -0.000681961
-3.09623e-05 0.00439112 -0.000671209
-9.68775e-05 0.00428216 -0.000659266
-4.84388e-05 0.00343432 -0.000555994
4.84434e-05 0.00464698 -0.000684333
8.0361e-05 0.00588973 -0.000825245
8.81109e-05 0.00604937 -0.000850374
9.03233e-05 0.00608185 -0.000864152
9.57872e-05 0.00608982 -0.000872062
0.000106734 0.00609095 -0.000876322
0.000122641 0.00609046 -0.000878354
0.000141979 0.00609029 -0.000878847
0.000162746 0.00609113 -0.000878008
0.000182539 0.00609302 -0.000875656
0.000198414 0.00609558 -0.000871585
0.000207077 0.00609789 -0.000865515
0.000204948 0.00609852 -0.000857326
0.000188606 0.00609549 -0.00084693
0.000155143 0.00608625 -0.000834704
0.000102684 0.00606791 -0.000821359
3.16518e-05 0.00603713 -0.000807775
-5.28135e-05 0.00598469 -0.000795532
-0.000125919 0.0058255 -0.000782663
-6.29595e-05 0.00461902 -0.000661793
7.09163e-05 0.00601896 -0.000798686
0.000117058 0.00770536 -0.000959928
0.000129151 0.00793203 -0.000987152
0.000130666 0.00797844 -0.00100243
0.000133539 0.00799027 -0.00101143
0.000141465 0.00799218 -0.00101639
0.000154539 0.0079913 -0.00101888
0.000171465 0.00799027 -0.00101965
0.000190218 0.00799005 -0.00101896
0.000208239 0.0079908 -0.0010166
0.000222351 0.0079921 -0.00101233
0.000228905 0.00799299 -0.00100577
0.000223822 0.00799179 -0.000996739
0.000202981 0.00798614 -0.000985157
0.000162778 0.00797295 -0.000971319
0.000100902 0.00794862 -0.000956097
1.77764e-05 0.00790892 -0.000940686
-7.9976e-05 0.00783999 -0.000927184
-0.000160108 0.00761724 -0.000913676
-8.00538e-05 0.00597811 -0.000774678
9.63952e-05 0.00757091 -0.000916455
0.000159274 0.00977929 -0.00109691
0.000176749 0.0100884 -0.00112544
0.000177585 0.0101517 -0.00114185
0.000177356 0.0101681 -0.00115181
0.000181566 0.010171 -0.00115745
0.000191062 0.0101699 -0.00116043
0.000204802 0.010168 -0.00116158
0.000220788 0.0101668 -0.00116118
0.000236322 0.0101663 -0.00115903
0.000248035 0.0101663 -0.00115479
0.00025185 0.0101658 -0.00114803
0.000243146 0.0101627 -0.00113841
0.000217063 0.0101544 -0.00112592
0.00016916 0.0101371 -0.00111085
9.66747e-05 0.0101065 -0.00109399
5.15372e-08 0.0100572 -0.00107694
-0.000112228 0.00996891 -0.00106248
-0.000199468 0.00966763 -0.00104869
-9.97339e-05 0.00751797 -0.000891542
0.000124567 0.00930331 -0.00103511
0.000206401 0.0121134 -0.00123281
0.000230108 0.0125209 -0.00126162
0.000230199 0.0126038 -0.00127864
0.000226427 0.0126251 -0.00128931
0.000226339 0.0126293 -0.00129551
0.000231646 0.0126279 -0.00129897
0.000241594 0.0126254 -0.00130058
0.000254228 0.0126232 -0.00130067
0.000266777 0.0126218 -0.00129897
0.000275705 0.0126209 -0.00129504
0.000276468 0.0126194 -0.0012885
0.000263718 0.0126152 -0.00127883
0.000231875 0.012605 -0.00126587
0.000175635 0.0125845 -0.00124993
9.15343e-05 0.0125483 -0.00123184
-2.00495e-05 0.0124894 -0.00121355
-0.000148272 0.0123792 -0.00119842
-0.000242863 0.011983 -0.00118477
-0.000121431 0.00924177 -0.00101018
0.000154625 0.0112149 -0.0011541
0.000256839 0.0147059 -0.00136659
0.000287171 0.0152278 -0.00139443
0.000286317 0.0153321 -0.00141133
0.000278629 0.0153582 -0.0014223
0.000273856 0.0153632 -0.00142888
0.000274581 0.0153617 -0.00143278
0.000280377 0.0153586 -0.00143495
0.000289459 0.0153559 -0.00143564
0.000298986 0.0153542 -0.00143466
0.00030519 0.0153533 -0.00143141
0.000303111 0.0153522 -0.00142547
0.000286658 0.0153484 -0.00141637
0.000249291 0.0153383 -0.00140368
0.000184678 0.0153168 -0.00138755
8.83536e-05 0.0152773 -0.0013689
-3.94583e-05 0.0152101 -0.00134997
-0.00018525 0.015076 -0.0013346
-0.000288086 0.0145673 -0.00132145
-0.000144043 0.0111514 -0.00113043
0.000185111 0.0133083 -0.00127692
0.000307686 0.0175578 -0.00150202
0.00034412 0.0182089 -0.00152754
0.000341794 0.018335 -0.00154339
0.000329826 0.0183645 -0.00155413
0.000320183 0.0183695 -0.00156081
0.000316325 0.0183675 -0.00156501
0.000318156 0.0183641 -0.00156773
0.000324075 0.0183614 -0.00156908
0.000331179 0.0183603 -0.00156905
0.000335507 0.0183608 -0.001567
0.000331681 0.0183618 -0.0015623
0.000312911 0.0183611 -0.00155442
0.000271539 0.0183547 -0.0015428
0.000199727 0.0183365 -0.00152742
9.15509e-05 0.0182982 -0.00150915
-5.31783e-05 0.0182264 -0.00149033
-0.000218371 0.0180677 -0.00147544
-0.00033147 0.0174283 -0.00146318
-0.000165735 0.013253 -0.00125602
0.000213637 0.0156017 -0.0014146
0.000354066 0.0206854 -0.00165174
0.000394512 0.0214781 -0.00167366
0.000389495 0.0216239 -0.0016874
0.000372872 0.0216537 -0.00169721
0.000358556 0.021657 -0.00170358
0.000350708 0.0216537 -0.00170786
0.000349447 0.0216499 -0.00171106
0.000353292 0.0216478 -0.00171311
0.000359399 0.0216483 -0.00171409
0.000363724 0.0216516 -0.00171347
0.000360597 0.0216572 -0.00171058
0.000342594 0.0216632 -0.00170465
0.000300674 0.0216656 -0.00169502
0.000224976 0.0216575 -0.00168156
0.000107318 0.0216282 -0.00166487
-5.38215e-05 0.0215592 -0.0016472
-0.000240314 0.0213783 -0.00163353
-0.000367185 0.0205901 -0.00162247
-0.000183593 0.0155677 -0.00139815
0.00023643 0.0181494 -0.00159168
0.000388092 0.0241434 -0.00184425
0.000427869 0.0250854 -0.00186158
0.000417935 0.0252448 -0.00187205
0.000396291 0.0252698 -0.00188009
0.000378038 0.0252683 -0.00188565
0.000367569 0.0252626 -0.00188959
0.000364905 0.0252581 -0.00189299
0.000368602 0.0252567 -0.00189578
0.000375999 0.0252593 -0.00189788
0.000383348 0.0252669 -0.00189884
0.000385008 0.0252797 -0.00189805
0.00037308 0.0252966 -0.00189468
0.000336942 0.0253143 -0.00188805
0.000264142 0.0253253 -0.00187776
0.000142982 0.025317 -0.00186408
-3.14035e-05 0.0252636 -0.00184902
-0.000240441 0.0250683 -0.00183756
-0.000386852 0.0241155 -0.00182746
-0.000193426 0.018152 -0.00158109
0.000247343 0.0210792 -0.00185766
0.000396921 0.0280671 -0.00213694
0.000427379 0.0291581 -0.00214944
0.000408981 0.0293191 -0.00215541
0.000382181 0.0293308 -0.00216064
0.000361627 0.0293206 -0.00216476
0.000350834 0.0293106 -0.00216801
0.000349348 0.0293045 -0.00217116
0.000355694 0.0293035 -0.00217432
0.000367737 0.0293084 -0.00217735
0.000382353 0.0293208 -0.00217984
0.00039449 0.0293423 -0.00218126
0.000396232 0.0293735 -0.00218085
0.000375757 0.0294129 -0.002178
0.000317662 0.0294541 -0.00217205
0.000204967 0.029483 -0.0021629
2.60824e-05 0.0294657 -0.00215214
-0.000204063 0.0292732 -0.00214407
-0.00037813 0.0281465 -0.00213424
-0.000189065 0.0211336 -0.00185354
0.0002356 0.0246664 -0.00231216
0.000358779 0.0327518 -0.00264455
0.000365554 0.0339779 -0.00265324
0.000333752 0.0341198 -0.0026535
0.000302391 0.0341067 -0.00265483
0.000282605 0.0340825 -0.0026566
0.000275215 0.0340658 -0.00265874
0.000278698 0.0340569 -0.00266138
0.000291554 0.0340552 -0.00266452
0.000312416 0.0340614 -0.00266802
0.000339304 0.0340779 -0.00267162
0.000368646 0.0341076 -0.00267491
0.000393622 0.0341541 -0.00267741
0.000402509 0.0342192 -0.0026786
0.00037744 0.0343007 -0.00267773
0.000294546 0.034386 -0.00267448
0.000130602 0.0344342 -0.00266974
-0.000111643 0.0342774 -0.00266643
-0.000322679 0.032982 -0.00265531
-0.000161339 0.0247832 -0.00231371
0.000180372 0.0294925 -0.00316707
0.000234233 0.0388229 -0.00360859
0.000195203 0.0401458 -0.00361646
0.000144546 0.0402362 -0.00360988
0.000111271 0.040184 -0.00360644
9.77377e-05 0.0401406 -0.00360505
9.97588e-05 0.0401151 -0.0036053
0.000113878 0.0401019 -0.0036068
0.00013853 0.0400979 -0.00360926
0.000173271 0.0401032 -0.00361253
0.000217921 0.0401207 -0.00361648
0.000271444 0.0401552 -0.00362092
0.000330033 0.0402133 -0.00362568
0.000384747 0.0403024 -0.00363042
0.000417866 0.040428 -0.00363461
0.000399284 0.0405859 -0.00363794
0.000288795 0.0407355 -0.0036407
6.18546e-05 0.0406699 -0.00364367
-0.000191177 0.0392426 -0.00362836
-9.55887e-05 0.0296686 -0.00317099
3.64074e-05 0.0368289 -0.00491375
-5.4061e-05 0.0476315 -0.00558044
-0.000169502 0.0489695 -0.00559395
-0.000241424 0.0489635 -0.00557954
-0.000268095 0.0488586 -0.00557032
-0.000264487 0.048793 -0.00556527
-0.000242578 0.0487577 -0.00556305
-0.000208368 0.0487387 -0.00556267
-0.000163623 0.0487302 -0.00556365
-0.000107736 0.0487313 -0.00556584
-3.86741e-05 0.0487451 -0.00556918
4.60085e-05 0.0487774 -0.00557369
0.000147814 0.0488376 -0.00557943
0.000264742 0.0489392 -0.00558639
0.000385572 0.0490987 -0.00559453
0.000480853 0.0493297 -0.00560386
0.000493627 0.0496104 -0.00561442
0.000350821 0.0497147 -0.00562467
7.20575e-05 0.0482548 -0.00559992
3.60288e-05 0.037034 -0.00491423
-0.000306461 0.0495854 -0.0087359
-0.000669389 0.062175 -0.00984592
-0.000891787 0.0633742 -0.00987699
-0.000971032 0.0632262 -0.00985615
-0.000965445 0.0630663 -0.00984089
-0.000918766 0.0629817 -0.00983165
-0.000853263 0.0629378 -0.00982633
-0.000777658 0.0629126 -0.00982341
-0.000693982 0.0628976 -0.00982225
-0.000600718 0.0628913 -0.00982261
-0.000493876 0.0628962 -0.00982445
-0.000367361 0.0629179 -0.0098279
-0.000212975 0.0629665 -0.00983324
-2.15188e-05 0.0630588 -0.00984076
0.000212653 0.0632213 -0.0098509
0.000479281 0.0634908 -0.00986394
0.000725621 0.0638896 -0.00988001
0.000821931 0.0642344 -0.00989577
0.000611324 0.0629473 -0.00985312
0.000305662 0.0497577 -0.00872837
-0.00113332 0.0726136 -0.0154709
-0.00194329 0.0867607 -0.0169868
-0.00223534 0.0875801 -0.0170412
-0.00223046 0.0873025 -0.0170209
-0.00210268 0.0871213 -0.0170017
-0.00193476 0.0870355 -0.0169887
-0.00175863 0.0869908 -0.0169803
-0.00158449 0.0869632 -0.0169749
-0.0014139 0.0869442 -0.0169717
-0.00124433 0.086932 -0.0169703
-0.00107036 0.086928 -0.0169708
-0.00088322 0.0869359 -0.0169732
-0.00066906 0.0869631 -0.016978
-0.000406352 0.0870236 -0.0169858
-6.36833e-05 0.0871433 -0.0169973
0.000396992 0.0873693 -0.0170125
0.000992736 0.0877687 -0.0170302
0.00161857 0.0882845 -0.0170431
0.00182167 0.0874582 -0.0169798
0.000910833 0.0727075 -0.0154637
-0.00270577 0.0363068 0.0506179
-0.00367166 0.0433804 0.0554073
-0.00359492 0.0437901 0.0554455
-0.00320014 0.0436512 0.0554446
-0.00276432 0.0435606 0.0554612
-0.00236563 0.0435177 0.0554755
-0.00201788 0.0434954 0.0554853
-0.00171718 0.0434816 0.0554918
-0.00145572 0.0434721 0.0554957
-0.00122471 0.043466 0.0554975
-0.00101485 0.043464 0.0554972
-0.000815421 0.043468 0.0554942
-0.000611541 0.0434816 0.0554875
-0.000379123 0.0435118 0.0554756
-7.46726e-05 0.0435717 0.0554563
0.000385679 0.0436847 0.0554277
0.00115881 0.0438844 0.0553931
0.00244879 0.0441423 0.0553761
0.00385739 0.0437291 0.0553332
0.0019287 0.0363538 0.0506116
-3.03276e-05 0.000302515 -0.000603663
-4.13006e-05 0.000367305 -0.0007313
-4.48123e-05 0.000372642 -0.000755363
-4.00213e-05 0.000372988 -0.000767658
-2.78183e-05 0.00037286 -0.000774857
-9.95129e-06 0.000372985 -0.000779217
1.17866e-05 0.000373496 -0.000781851
3.56049e-05 0.000374407 -0.000783229
5.96944e-05 0.000375647 -0.0007834
8.22218e-05 0.000377124 -0.000782197
0.00010142 0.000378791 -0.000779289
0.00011554 0.000380609 -0.000774347
0.000122729 0.000382325 -0.000767301
0.000121343 0.000383625 -0.000758296
0.000110376 0.000384215 -0.000747689
8.97888e-05 0.000383825 -0.000735942
6.06265e-05 0.000382131 -0.000723666
2.49388e-05 0.000378672 -0.000711429
-1.44282e-05 0.000370987 -0.00069507
-7.21412e-06 0.000311524 -0.000581356
-2.42198e-05 0.000892075 -0.000817983
-3.86061e-05 0.00108924 -0.00101803
-4.63527e-05 0.00110812 -0.00105743
-4.41925e-05 0.00111012 -0.00107609
-3.22651e-05 0.00110979 -0.00108648
-1.21985e-05 0.00110966 -0.00109245
1.40633e-05 0.00111034 -0.00109578
4.43759e-05 0.00111195 -0.00109725
7.64736e-05 0.00111439 -0.00109701
0.000108025 0.00111756 -0.00109477
0.000136671 0.00112136 -0.0010901
0.000159754 0.00112551 -0.00108259
0.000174421 0.00112942 -0.00107218
0.000178073 0.00113239 -0.00105905
0.000168843 0.00113366 -0.00104352
0.00014593 0.00113246 -0.00102615
0.000109799 0.00112775 -0.00100786
6.24987e-05 0.0011179 -0.000989183
8.65306e-06 0.00109299 -0.000962771
4.32653e-06 0.000900545 -0.000790116
-1.19143e-05 0.00169837 -0.00100968
-2.17097e-05 0.00210743 -0.00126402
-2.91874e-05 0.00215111 -0.00131461
-2.79096e-05 0.00215694 -0.00133827
-1.67628e-05 0.00215683 -0.00135115
3.06737e-06 0.00215632 -0.00135829
2.97175e-05 0.00215683 -0.00136205
6.10126e-05 0.0021587 -0.00136349
9.47012e-05 0.00216191 -0.00136279
0.000128372 0.00216638 -0.00135964
0.000159401 0.00217191 -0.00135353
0.000184732 0.00217797 -0.00134406
0.000201021 0.00218366 -0.00133107
0.000205191 0.00218786 -0.00131461
0.00019484 0.00218924 -0.00129503
0.000168424 0.00218631 -0.00127306
0.000125705 0.00217711 -0.00124976
6.82955e-05 0.00215818 -0.00122583
3.3471e-06 0.00210558 -0.00119218
1.67355e-06 0.00170325 -0.000975423
3.58027e-06 0.00271348 -0.00125077
1.47066e-06 0.00342487 -0.00156686
-4.1662e-06 0.00350804 -0.00162918
-3.10075e-06 0.00352069 -0.00165831
7.57466e-06 0.00352163 -0.00167404
2.72539e-05 0.00352083 -0.0016826
5.41943e-05 0.0035209 -0.00168697
8.62392e-05 0.00352257 -0.00168849
0.000121141 0.00352597 -0.00168742
0.000156365 0.00353107 -0.0016834
0.000188979 0.00353758 -0.00167588
0.000215535 0.00354476 -0.00166435
0.000232234 0.00355135 -0.00164851
0.000235403 0.0035559 -0.0016283
0.00022201 0.00355641 -0.00160411
0.000189668 0.0035505 -0.00157693
0.000137436 0.00353519 -0.00154809
6.69558e-05 0.00350427 -0.00151838
-1.03637e-05 0.0034108 -0.0014772
-5.18186e-06 0.00271136 -0.00120895
2.24647e-05 0.00394999 -0.00153261
3.0896e-05 0.00506631 -0.00191769
2.83407e-05 0.00520735 -0.00199227
2.95021e-05 0.00523073 -0.00202716
3.9521e-05 0.00523386 -0.00204602
5.86333e-05 0.00523304 -0.00205619
8.53647e-05 0.00523248 -0.00206132
0.000117645 0.00523349 -0.00206308
0.00015323 0.00523646 -0.00206177
0.000189456 0.00524143 -0.00205702
0.00022308 0.005248 -0.0020482
0.000250221 0.00525528 -0.00203461
0.000266664 0.0052618 -0.00201573
0.000268019 0.00526561 -0.00199154
0.000250343 0.00526399 -0.00196245
0.000210439 0.00525358 -0.00192959
0.000146723 0.00523035 -0.00189466
6.11487e-05 0.00518396 -0.00185893
-2.92634e-05 0.00503307 -0.00181002
-1.46317e-05 0.00393747 -0.00148329
4.53209e-05 0.00542578 -0.00184545
6.74803e-05 0.00706189 -0.0023043
6.94565e-05 0.00728295 -0.00239114
7.09981e-05 0.00732187 -0.00243184
8.00204e-05 0.0073286 -0.00245392
9.79034e-05 0.00732814 -0.00246585
0.000123602 0.00732687 -0.00247191
0.00015524 0.00732688 -0.00247408
0.000190599 0.00732887 -0.00247276
0.000226857 0.00733293 -0.00246752
0.000260533 0.00733865 -0.00245756
0.000287368 0.00734506 -0.0024421
0.000302623 0.00735043 -0.00242031
0.000301087 0.00735226 -0.00239214
0.000277763 0.00734714 -0.0023581
0.000228694 0.00733076 -0.00231942
0.000151681 0.00729766 -0.00227812
4.91433e-05 0.00723151 -0.00223621
-5.47472e-05 0.00700307 -0.00217943
-2.73736e-05 0.00539991 -0.00178906
7.26664e-05 0.0071567 -0.00217983
0.000112184 0.00943895 -0.00271442
0.000120357 0.00976578 -0.00281292
0.000122603 0.0098258 -0.00285913
0.000130231 0.00983772 -0.00288438
0.0001461 0.00983811 -0.00289812
0.000169829 0.0098362 -0.00290524
0.000199781 0.00983501 -0.00290803
0.000233757 0.00983557 -0.00290699
0.000268852 0.00983813 -0.00290163
0.000301414 0.00984232 -0.00289095
0.00032681 0.00984704 -0.00287402
0.000339634 0.00985035 -0.0028498
0.000333908 0.00984915 -0.002818
0.000303521 0.00983921 -0.00277918
0.000243581 0.0098154 -0.00273465
0.000151257 0.00977042 -0.00268695
2.98008e-05 0.00967934 -0.00263896
-8.79733e-05 0.00934947 -0.0025744
-4.39866e-05 0.0071154 -0.00211727
0.000104764 0.00915281 -0.00252626
0.000165486 0.0122173 -0.00313561
0.000181624 0.0126789 -0.00324442
0.000184924 0.0127661 -0.00329546
0.000190747 0.0127848 -0.00332358
0.000203852 0.0127867 -0.00333904
0.000224648 0.0127843 -0.00334732
0.000251776 0.0127819 -0.00335097
0.000283175 0.0127808 -0.00335056
0.000315903 0.0127816 -0.00334559
0.000346137 0.0127839 -0.00333484
0.000368915 0.0127864 -0.0033171
0.000378054 0.0127871 -0.00329126
0.00036667 0.0127822 -0.00325667
0.000327714 0.0127668 -0.00321367
0.000255143 0.0127345 -0.00316374
0.00014529 0.0126757 -0.00311003
2.82041e-06 0.012554 -0.00305621
-0.000129297 0.012095 -0.00298409
-6.46487e-05 0.00909588 -0.00245893
0.000141433 0.0114168 -0.00287621
0.000227018 0.0154067 -0.00355649
0.000252746 0.0160347 -0.00367356
0.000257411 0.0161555 -0.0037282
0.000261076 0.0161825 -0.00375856
0.000270717 0.0161862 -0.00377549
0.000287665 0.0161837 -0.00378489
0.000310955 0.0161801 -0.00378962
0.0003387 0.0161776 -0.00379028
0.000368029 0.0161766 -0.0037863
0.000394884 0.0161771 -0.00377637
0.000413958 0.0161778 -0.00375891
0.000418423 0.016176 -0.00373254
0.000400353 0.0161676 -0.00369639
0.000351527 0.0161468 -0.00365042