# vtk DataFile Version 2.0 
Visualization 
ASCII 
DATASET STRUCTURED_GRID 
DIMENSIONS 21 21 11
POINTS 4851 float
-0.1 -0.1 -0.1
0 -0.1 -0.1
0.1 -0.1 -0.1
0.2 -0.1 -0.1
0.3 -0.1 -0.1
0.4 -0.1 -0.1
0.5 -0.1 -0.1
0.6 -0.1 -0.1
0.7 -0.1 -0.1
0.8 -0.1 -0.1
0.9 -0.1 -0.1
1 -0.1 -0.1
1.1 -0.1 -0.1
1.2 -0.1 -0.1
1.3 -0.1 -0.1
1.4 -0.1 -0.1
1.5 -0.1 -0.1
1.6 -0.1 -0.1
1.7 -0.1 -0.1
1.8 -0.1 -0.1
1.9 -0.1 -0.1
-0.1 0 -0.1
0 0 -0.1
0.1 0 -0.1
0.2 0 -0.1
0.3 0 -0.1
0.4 0 -0.1
0.5 0 -0.1
0.6 0 -0.1
0.7 0 -0.1
0.8 0 -0.1
0.9 0 -0.1
1 0 -0.1
1.1 0 -0.1
1.2 0 -0.1
1.3 0 -0.1
1.4 0 -0.1
1.5 0 -0.1
1.6 0 -0.1
1.7 0 -0.1
1.8 0 -0.1
1.9 0 -0.1
-0.1 0.1 -0.1
0 0.1 -0.1
0.1 0.1 -0.1
0.2 0.1 -0.1
0.3 0.1 -0.1
0.4 0.1 -0.1
0.5 0.1 -0.1
0.6 0.1 -0.1
0.7 0.1 -0.1
0.8 0.1 -0.1
0.9 0.1 -0.1
1 0.1 -0.1
1.1 0.1 -0.1
1.2 0.1 -0.1
1.3 0.1 -0.1
1.4 0.1 -0.1
1.5 0.1 -0.1
1.6 0.1 -0.1
1.7 0.1 -0.1
1.8 0.1 -0.1
1.9 0.1 -0.1
-0.1 0.2 -0.1
0 0.2 -0.1
0.1 0.2 -0.1
0.2 0.2 -0.1
0.3 0.2 -0.1
0.4 0.2 -0.1
0.5 0.2 -0.1
0.6 0.2 -0.1
0.7 0.2 -0.1
0.8 0.2 -0.1
0.9 0.2 -0.1
1 0.2 -0.1
1.1 0.2 -0.1
1.2 0.2 -0.1
1.3 0.2 -0.1
1.4 0.2 -0.1
1.5 0.2 -0.1
1.6 0.2 -0.1
1.7 0.2 -0.1
1.8 0.2 -0.1
1.9 0.2 -0.1
-0.1 0.3 -0.1
0 0.3 -0.1
0.1 0.3 -0.1
0.2 0.3 -0.1
0.3 0.3 -0.1
0.4 0.3 -0.1
0.5 0.3 -0.1
0.6 0.3 -0.1
0.7 0.3 -0.1
0.8 0.3 -0.1
0.9 0.3 -0.1
1 0.3 -0.1
1.1 0.3 -0.1
1.2 0.3 -0.1
1.3 0.3 -0.1
1.4 0.3 -0.1
1.5 0.3 -0.1
1.6 0.3 -0.1
1.7 0.3 -0.1
1.8 0.3 -0.1
1.9 0.3 -0.1
-0.1 0.4 -0.1
0 0.4 -0.1
0.1 0.4 -0.1
0.2 0.4 -0.1
0.3 0.4 -0.1
0.4 0.4 -0.1
0.5 0.4 -0.1
0.6 0.4 -0.1
0.7 0.4 -0.1
0.8 0.4 -0.1
0.9 0.4 -0.1
1 0.4 -0.1
1.1 0.4 -0.1
1.2 0.4 -0.1
1.3 0.4 -0.1
1.4 0.4 -0.1
1.5 0.4 -0.1
1.6 0.4 -0.1
1.7 0.4 -0.1
1.8 0.4 -0.1
1.9 0.4 -0.1
-0.1 0.5 -0.1
0 0.5 -0.1
0.1 0.5 -0.1
0.2 0.5 -0.1
0.3 0.5 -0.1
0.4 0.5 -0.1
0.5 0.5 -0.1
0.6 0.5 -0.1
0.7 0.5 -0.1
0.8 0.5 -0.1
0.9 0.5 -0.1
1 0.5 -0.1
1.1 0.5 -0.1
1.2 0.5 -0.1
1.3 0.5 -0.1
1.4 0.5 -0.1
1.5 0.5 -0.1
1.6 0.5 -0.1
1.7 0.5 -0.1
1.8 0.5 -0.1
1.9 0.5 -0.1
-0.1 0.6 -0.1
0 0.6 -0.1
0.1 0.6 -0.1
0.2 0.6 -0.1
0.3 0.6 -0.1
0.4 0.6 -0.1
0.5 0.6 -0.1
0.6 0.6 -0.1
0.7 0.6 -0.1
0.8 0.6 -0.1
0.9 0.6 -0.1
1 0.6 -0.1
1.1 0.6 -0.1
1.2 0.6 -0.1
1.3 0.6 -0.1
1.4 0.6 -0.1
1.5 0.6 -0.1
1.6 0.6 -0.1
1.7 0.6 -0.1
1.8 0.6 -0.1
1.9 0.6 -0.1
-0.1 0.7 -0.1
0 0.7 -0.1
0.1 0.7 -0.1
0.2 0.7 -0.1
0.3 0.7 -0.1
0.4 0.7 -0.1
0.5 0.7 -0.1
0.6 0.7 -0.1
0.7 0.7 -0.1
0.8 0.7 -0.1
0.9 0.7 -0.1
1 0.7 -0.1
1.1 0.7 -0.1
1.2 0.7 -0.1
1.3 0.7 -0.1
1.4 0.7 -0.1
1.5 0.7 -0.1
1.6 0.7 -0.1
1.7 0.7 -0.1
1.8 0.7 -0.1
1.9 0.7 -0.1
-0.1 0.8 -0.1
0 0.8 -0.1
0.1 0.8 -0.1
0.2 0.8 -0.1
0.3 0.8 -0.1
0.4 0.8 -0.1
0.5 0.8 -0.1
0.6 0.8 -0.1
0.7 0.8 -0.1
0.8 0.8 -0.1
0.9 0.8 -0.1
1 0.8 -0.1
1.1 0.8 -0.1
1.2 0.8 -0.1
1.3 0.8 -0.1
1.4 0.8 -0.1
1.5 0.8 -0.1
1.6 0.8 -0.1
1.7 0.8 -0.1
1.8 0.8 -0.1
1.9 0.8 -0.1
-0.1 0.9 -0.1
0 0.9 -0.1
0.1 0.9 -0.1
0.2 0.9 -0.1
0.3 0.9 -0.1
0.4 0.9 -0.1
0.5 0.9 -0.1
0.6 0.9 -0.1
0.7 0.9 -0.1
0.8 0.9 -0.1
0.9 0.9 -0.1
1 0.9 -0.1
1.1 0.9 -0.1
1.2 0.9 -0.1
1.3 0.9 -0.1
1.4 0.9 -0.1
1.5 0.9 -0.1
1.6 0.9 -0.1
1.7 0.9 -0.1
1.8 0.9 -0.1
1.9 0.9 -0.1
-0.1 1 -0.1
0 1 -0.1
0.1 1 -0.1
0.2 1 -0.1
0.3 1 -0.1
0.4 1 -0.1
0.5 1 -0.1
0.6 1 -0.1
0.7 1 -0.1
0.8 1 -0.1
0.9 1 -0.1
1 1 -0.1
1.1 1 -0.1
1.2 1 -0.1
1.3 1 -0.1
1.4 1 -0.1
1.5 1 -0.1
1.6 1 -0.1
1.7 1 -0.1
1.8 1 -0.1
1.9 1 -0.1
-0.1 1.1 -0.1
0 1.1 -0.1
0.1 1.1 -0.1
0.2 1.1 -0.1
0.3 1.1 -0.1
0.4 1.1 -0.1
0.5 1.1 -0.1
0.6 1.1 -0.1
0.7 1.1 -0.1
0.8 1.1 -0.1
0.9 1.1 -0.1
1 1.1 -0.1
1.1 1.1 -0.1
1.2 1.1 -0.1
1.3 1.1 -0.1
1.4 1.1 -0.1
1.5 1.1 -0.1
1.6 1.1 -0.1
1.7 1.1 -0.1
1.8 1.1 -0.1
1.9 1.1 -0.1
-0.1 1.2 -0.1
0 1.2 -0.1
0.1 1.2 -0.1
0.2 1.2 -0.1
0.3 1.2 -0.1
0.4 1.2 -0.1
0.5 1.2 -0.1
0.6 1.2 -0.1
0.7 1.2 -0.1
0.8 1.2 -0.1
0.9 1.2 -0.1
1 1.2 -0.1
1.1 1.2 -0.1
1.2 1.2 -0.1
1.3 1.2 -0.1
1.4 1.2 -0.1
1.5 1.2 -0.1
1.6 1.2 -0.1
1.7 1.2 -0.1
1.8 1.2 -0.1
1.9 1.2 -0.1
-0.1 1.3 -0.1
0 1.3 -0.1
0.1 1.3 -0.1
0.2 1.3 -0.1
0.3 1.3 -0.1
0.4 1.3 -0.1
0.5 1.3 -0.1
0.6 1.3 -0.1
0.7 1.3 -0.1
0.8 1.3 -0.1
0.9 1.3 -0.1
1 1.3 -0.1
1.1 1.3 -0.1
1.2 1.3 -0.1
1.3 1.3 -0.1
1.4 1.3 -0.1
1.5 1.3 -0.1
1.6 1.3 -0.1
1.7 1.3 -0.1
1.8 1.3 -0.1
1.9 1.3 -0.1
-0.1 1.4 -0.1
0 1.4 -0.1
0.1 1.4 -0.1
0.2 1.4 -0.1
0.3 1.4 -0.1
0.4 1.4 -0.1
0.5 1.4 -0.1
0.6 1.4 -0.1
0.7 1.4 -0.1
0.8 1.4 -0.1
0.9 1.4 -0.1
1 1.4 -0.1
1.1 1.4 -0.1
1.2 1.4 -0.1
1.3 1.4 -0.1
1.4 1.4 -0.1
1.5 1.4 -0.1
1.6 1.4 -0.1
1.7 1.4 -0.1
1.8 1.4 -0.1
1.9 1.4 -0.1
-0.1 1.5 -0.1
0 1.5 -0.1
0.1 1.5 -0.1
0.2 1.5 -0.1
0.3 1.5 -0.1
0.4 1.5 -0.1
0.5 1.5 -0.1
0.6 1.5 -0.1
0.7 1.5 -0.1
0.8 1.5 -0.1
0.9 1.5 -0.1
1 1.5 -0.1
1.1 1.5 -0.1
1.2 1.5 -0.1
1.3 1.5 -0.1
1.4 1.5 -0.1
1.5 1.5 -0.1
1.6 1.5 -0.1
1.7 1.5 -0.1
1.8 1.5 -0.1
1.9 1.5 -0.1
-0.1 1.6 -0.1
0 1.6 -0.1
0.1 1.6 -0.1
0.2 1.6 -0.1
0.3 1.6 -0.1
0.4 1.6 -0.1
0.5 1.6 -0.1
0.6 1.6 -0.1
0.7 1.6 -0.1
0.8 1.6 -0.1
0.9 1.6 -0.1
1 1.6 -0.1
1.1 1.6 -0.1
1.2 1.6 -0.1
1.3 1.6 -0.1
1.4 1.6 -0.1
1.5 1.6 -0.1
1.6 1.6 -0.1
1.7 1.6 -0.1
1.8 1.6 -0.1
1.9 1.6 -0.1
-0.1 1.7 -0.1
0 1.7 -0.1
0.1 1.7 -0.1
0.2 1.7 -0.1
0.3 1.7 -0.1
0.4 1.7 -0.1
0.5 1.7 -0.1
0.6 1.7 -0.1
0.7 1.7 -0.1
0.8 1.7 -0.1
0.9 1.7 -0.1
1 1.7 -0.1
1.1 1.7 -0.1
1.2 1.7 -0.1
1.3 1.7 -0.1
1.4 1.7 -0.1
1.5 1.7 -0.1
1.6 1.7 -0.1
1.7 1.7 -0.1
1.8 1.7 -0.1
1.9 1.7 -0.1
-0.1 1.8 -0.1
0 1.8 -0.1
0.1 1.8 -0.1
0.2 1.8 -0.1
0.3 1.8 -0.1
0.4 1.8 -0.1
0.5 1.8 -0.1
0.6 1.8 -0.1
0.7 1.8 -0.1
0.8 1.8 -0.1
0.9 1.8 -0.1
1 1.8 -0.1
1.1 1.8 -0.1
1.2 1.8 -0.1
1.3 1.8 -0.1
1.4 1.8 -0.1
1.5 1.8 -0.1
1.6 1.8 -0.1
1.7 1.8 -0.1
1.8 1.8 -0.1
1.9 1.8 -0.1
-0.1 1.9 -0.1
0 1.9 -0.1
0.1 1.9 -0.1
0.2 1.9 -0.1
0.3 1.9 -0.1
0.4 1.9 -0.1
0.5 1.9 -0.1
0.6 1.9 -0.1
0.7 1.9 -0.1
0.8 1.9 -0.1
0.9 1.9 -0.1
1 1.9 -0.1
1.1 1.9 -0.1
1.2 1.9 -0.1
1.3 1.9 -0.1
1.4 1.9 -0.1
1.5 1.9 -0.1
1.6 1.9 -0.1
1.7 1.9 -0.1
1.8 1.9 -0.1
1.9 1.9 -0.1
-0.1 -0.1 0
0 -0.1 0
0.1 -0.1 0
0.2 -0.1 0
0.3 -0.1 0
0.4 -0.1 0
0.5 -0.1 0
0.6 -0.1 0
0.7 -0.1 0
0.8 -0.1 0
0.9 -0.1 0
1 -0.1 0
1.1 -0.1 0
1.2 -0.1 0
1.3 -0.1 0
1.4 -0.1 0
1.5 -0.1 0
1.6 -0.1 0
1.7 -0.1 0
1.8 -0.1 0
1.9 -0.1 0
-0.1 0 0
0 0 0
0.1 0 0
0.2 0 0
0.3 0 0
0.4 0 0
0.5 0 0
0.6 0 0
0.7 0 0
0.8 0 0
0.9 0 0
1 0 0
1.1 0 0
1.2 0 0
1.3 0 0
1.4 0 0
1.5 0 0
1.6 0 0
1.7 0 0
1.8 0 0
1.9 0 0
-0.1 0.1 0
0 0.1 0
0.1 0.1 0
0.2 0.1 0
0.3 0.1 0
0.4 0.1 0
0.5 0.1 0
0.6 0.1 0
0.7 0.1 0
0.8 0.1 0
0.9 0.1 0
1 0.1 0
1.1 0.1 0
1.2 0.1 0
1.3 0.1 0
1.4 0.1 0
1.5 0.1 0
1.6 0.1 0
1.7 0.1 0
1.8 0.1 0
1.9 0.1 0
-0.1 0.2 0
0 0.2 0
0.1 0.2 0
0.2 0.2 0
0.3 0.2 0
0.4 0.2 0
0.5 0.2 0
0.6 0.2 0
0.7 0.2 0
0.8 0.2 0
0.9 0.2 0
1 0.2 0
1.1 0.2 0
1.2 0.2 0
1.3 0.2 0
1.4 0.2 0
1.5 0.2 0
1.6 0.2 0
1.7 0.2 0
1.8 0.2 0
1.9 0.2 0
-0.1 0.3 0
0 0.3 0
0.1 0.3 0
0.2 0.3 0
0.3 0.3 0
0.4 0.3 0
0.5 0.3 0
0.6 0.3 0
0.7 0.3 0
0.8 0.3 0
0.9 0.3 0
1 0.3 0
1.1 0.3 0
1.2 0.3 0
1.3 0.3 0
1.4 0.3 0
1.5 0.3 0
1.6 0.3 0
1.7 0.3 0
1.8 0.3 0
1.9 0.3 0
-0.1 0.4 0
0 0.4 0
0.1 0.4 0
0.2 0.4 0
0.3 0.4 0
0.4 0.4 0
0.5 0.4 0
0.6 0.4 0
0.7 0.4 0
0.8 0.4 0
0.9 0.4 0
1 0.4 0
1.1 0.4 0
1.2 0.4 0
1.3 0.4 0
1.4 0.4 0
1.5 0.4 0
1.6 0.4 0
1.7 0.4 0
1.8 0.4 0
1.9 0.4 0
-0.1 0.5 0
0 0.5 0
0.1 0.5 0
0.2 0.5 0
0.3 0.5 0
0.4 0.5 0
0.5 0.5 0
0.6 0.5 0
0.7 0.5 0
0.8 0.5 0
0.9 0.5 0
1 0.5 0
1.1 0.5 0
1.2 0.5 0
1.3 0.5 0
1.4 0.5 0
1.5 0.5 0
1.6 0.5 0
1.7 0.5 0
1.8 0.5 0
1.9 0.5 0
-0.1 0.6 0
0 0.6 0
0.1 0.6 0
0.2 0.6 0
0.3 0.6 0
0.4 0.6 0
0.5 0.6 0
0.6 0.6 0
0.7 0.6 0
0.8 0.6 0
0.9 0.6 0
1 0.6 0
1.1 0.6 0
1.2 0.6 0
1.3 0.6 0
1.4 0.6 0
1.5 0.6 0
1.6 0.6 0
1.7 0.6 0
1.8 0.6 0
1.9 0.6 0
-0.1 0.7 0
0 0.7 0
0.1 0.7 0
0.2 0.7 0
0.3 0.7 0
0.4 0.7 0
0.5 0.7 0
0.6 0.7 0
0.7 0.7 0
0.8 0.7 0
0.9 0.7 0
1 0.7 0
1.1 0.7 0
1.2 0.7 0
1.3 0.7 0
1.4 0.7 0
1.5 0.7 0
1.6 0.7 0
1.7 0.7 0
1.8 0.7 0
1.9 0.7 0
-0.1 0.8 0
0 0.8 0
0.1 0.8 0
0.2 0.8 0
0.3 0.8 0
0.4 0.8 0
0.5 0.8 0
0.6 0.8 0
0.7 0.8 0
0.8 0.8 0
0.9 0.8 0
1 0.8 0
1.1 0.8 0
1.2 0.8 0
1.3 0.8 0
1.4 0.8 0
1.5 0.8 0
1.6 0.8 0
1.7 0.8 0
1.8 0.8 0
1.9 0.8 0
-0.1 0.9 0
0 0.9 0
0.1 0.9 0
0.2 0.9 0
0.3 0.9 0
0.4 0.9 0
0.5 0.9 0
0.6 0.9 0
0.7 0.9 0
0.8 0.9 0
0.9 0.9 0
1 0.9 0
1.1 0.9 0
1.2 0.9 0
1.3 0.9 0
1.4 0.9 0
1.5 0.9 0
1.6 0.9 0
1.7 0.9 0
1.8 0.9 0
1.9 0.9 0
-0.1 1 0
0 1 0
0.1 1 0
0.2 1 0
0.3 1 0
0.4 1 0
0.5 1 0
0.6 1 0
0.7 1 0
0.8 1 0
0.9 1 0
1 1 0
1.1 1 0
1.2 1 0
1.3 1 0
1.4 1 0
1.5 1 0
1.6 1 0
1.7 1 0
1.8 1 0
1.9 1 0
-0.1 1.1 0
0 1.1 0
0.1 1.1 0
0.2 1.1 0
0.3 1.1 0
0.4 1.1 0
0.5 1.1 0
0.6 1.1 0
0.7 1.1 0
0.8 1.1 0
0.9 1.1 0
1 1.1 0
1.1 1.1 0
1.2 1.1 0
1.3 1.1 0
1.4 1.1 0
1.5 1.1 0
1.6 1.1 0
1.7 1.1 0
1.8 1.1 0
1.9 1.1 0
-0.1 1.2 0
0 1.2 0
0.1 1.2 0
0.2 1.2 0
0.3 1.2 0
0.4 1.2 0
0.5 1.2 0
0.6 1.2 0
0.7 1.2 0
0.8 1.2 0
0.9 1.2 0
1 1.2 0
1.1 1.2 0
1.2 1.2 0
1.3 1.2 0
1.4 1.2 0
1.5 1.2 0
1.6 1.2 0
1.7 1.2 0
1.8 1.2 0
1.9 1.2 0
-0.1 1.3 0
0 1.3 0
0.1 1.3 0
0.2 1.3 0
0.3 1.3 0
0.4 1.3 0
0.5 1.3 0
0.6 1.3 0
0.7 1.3 0
0.8 1.3 0
0.9 1.3 0
1 1.3 0
1.1 1.3 0
1.2 1.3 0
1.3 1.3 0
1.4 1.3 0
1.5 1.3 0
1.6 1.3 0
1.7 1.3 0
1.8 1.3 0
1.9 1.3 0
-0.1 1.4 0
0 1.4 0
0.1 1.4 0
0.2 1.4 0
0.3 1.4 0
0.4 1.4 0
0.5 1.4 0
0.6 1.4 0
0.7 1.4 0
0.8 1.4 0
0.9 1.4 0
1 1.4 0
1.1 1.4 0
1.2 1.4 0
1.3 1.4 0
1.4 1.4 0
1.5 1.4 0
1.6 1.4 0
1.7 1.4 0
1.8 1.4 0
1.9 1.4 0
-0.1 1.5 0
0 1.5 0
0.1 1.5 0
0.2 1.5 0
0.3 1.5 0
0.4 1.5 0
0.5 1.5 0
0.6 1.5 0
0.7 1.5 0
0.8 1.5 0
0.9 1.5 0
1 1.5 0
1.1 1.5 0
1.2 1.5 0
1.3 1.5 0
1.4 1.5 0
1.5 1.5 0
1.6 1.5 0
1.7 1.5 0
1.8 1.5 0
1.9 1.5 0
-0.1 1.6 0
0 1.6 0
0.1 1.6 0
0.2 1.6 0
0.3 1.6 0
0.4 1.6 0
0.5 1.6 0
0.6 1.6 0
0.7 1.6 0
0.8 1.6 0
0.9 1.6 0
1 1.6 0
1.1 1.6 0
1.2 1.6 0
1.3 1.6 0
1.4 1.6 0
1.5 1.6 0
1.6 1.6 0
1.7 1.6 0
1.8 1.6 0
1.9 1.6 0
-0.1 1.7 0
0 1.7 0
0.1 1.7 0
0.2 1.7 0
0.3 1.7 0
0.4 1.7 0
0.5 1.7 0
0.6 1.7 0
0.7 1.7 0
0.8 1.7 0
0.9 1.7 0
1 1.7 0
1.1 1.7 0
1.2 1.7 0
1.3 1.7 0
1.4 1.7 0
1.5 1.7 0
1.6 1.7 0
1.7 1.7 0
1.8 1.7 0
1.9 1.7 0
-0.1 1.8 0
0 1.8 0
0.1 1.8 0
0.2 1.8 0
0.3 1.8 0
0.4 1.8 0
0.5 1.8 0
0.6 1.8 0
0.7 1.8 0
0.8 1.8 0
0.9 1.8 0
1 1.8 0
1.1 1.8 0
1.2 1.8 0
1.3 1.8 0
1.4 1.8 0
1.5 1.8 0
1.6 1.8 0
1.7 1.8 0
1.8 1.8 0
1.9 1.8 0
-0.1 1.9 0
0 1.9 0
0.1 1.9 0
0.2 1.9 0
0.3 1.9 0
0.4 1.9 0
0.5 1.9 0
0.6 1.9 0
0.7 1.9 0
0.8 1.9 0
0.9 1.9 0
1 1.9 0
1.1 1.9 0
1.2 1.9 0
1.3 1.9 0
1.4 1.9 0
1.5 1.9 0
1.6 1.9 0
1.7 1.9 0
1.8 1.9 0
[...]
CELL_DATA 4000
VECTORS velocity double 
-2.89113e-05 0.000241503 -0.000212592
-3.22761e-05 0.000283671 -0.000239783
-2.83845e-05 0.000287985 -0.000248607
-1.6004e-05 0.000288274 -0.000254554
4.44888e-06 0.000288319 -0.000258511
3.10273e-05 0.000288879 -0.00026116
6.11714e-05 0.000290075 -0.000262921
9.22302e-05 0.000291878 -0.000263935
0.000121572 0.00029423 -0.000264139
0.000146534 0.000297012 -0.000263421
0.00016449 0.000299994 -0.000261713
0.000173143 0.00030296 -0.000258936
0.000170742 0.00030562 -0.000255115
0.000156327 0.000307563 -0.000250462
0.000130072 0.000308312 -0.000245283
9.35166e-05 0.00030743 -0.000240042
4.98258e-05 0.000304495 -0.000235175
3.94602e-06 0.000299248 -0.000231183
-3.74257e-05 0.000290336 -0.00022764
-1.87128e-05 0.000252487 -0.000203689
-1.80688e-05 0.00071294 -0.000277684
-2.25809e-05 0.000833968 -0.000323019
-2.17172e-05 0.000846845 -0.000336791
-1.11264e-05 0.00084802 -0.000345147
9.78573e-06 0.000847798 -0.000350383
3.92835e-05 0.000848428 -0.00035365
7.46733e-05 0.000850463 -0.000355616
0.000112983 0.000853996 -0.000356483
0.000151044 0.000858956 -0.000356222
0.000185434 0.000865064 -0.00035476
0.000212705 0.000871927 -0.000351965
0.000229624 0.000879064 -0.000347727
0.000233365 0.000885669 -0.000342162
0.000221897 0.000890692 -0.000335619
0.000194543 0.00089297 -0.00032842
0.000152264 0.000891295 -0.000321135
9.8186e-05 0.00088468 -0.000314373
3.75831e-05 0.000872057 -0.000309035
-2.02791e-05 0.000848403 -0.000304531
-1.01396e-05 0.000728555 -0.00027167
-6.31261e-06 0.00135713 -0.000357167
-7.71624e-06 0.00160604 -0.000417232
-7.79789e-06 0.00163414 -0.000435261
1.13007e-06 0.0016376 -0.000445962
2.09892e-05 0.0016373 -0.00045245
5.04295e-05 0.00163768 -0.000456295
8.68373e-05 0.00163999 -0.000458365
0.000127171 0.00164459 -0.000458978
0.000168043 0.00165142 -0.000458188
0.000205792 0.00166018 -0.000455887
0.000236636 0.00167039 -0.000451877
0.00025675 0.0016812 -0.000446115
0.000262619 0.00169134 -0.000438751
0.000251529 0.00169905 -0.000430109
0.000222094 0.00170242 -0.000420647
0.000174843 0.00169949 -0.000411051
0.000112501 0.00168857 -0.000402145
4.05375e-05 0.00166734 -0.000395064
-2.91271e-05 0.00162365 -0.000389612
-1.45635e-05 0.00137512 -0.000348905
8.07568e-06 0.00217375 -0.000458209
1.19831e-05 0.00260814 -0.000534835
1.15948e-05 0.00266034 -0.0005573
1.86386e-05 0.00266824 -0.000570587
3.68432e-05 0.00266844 -0.000578504
6.54633e-05 0.0026684 -0.000583038
0.000102046 0.00267037 -0.000585298
0.000143482 0.00267505 -0.000585733
0.000186258 0.0026826 -0.000584442
0.000226498 0.00269275 -0.000581271
0.000259977 0.00270492 -0.000576026
0.00028232 0.00271799 -0.000568659
0.000289226 0.00273023 -0.000559319
0.000277255 0.00273934 -0.000548254
0.000244346 0.00274272 -0.000536085
0.000190553 0.00273746 -0.000523707
0.000118066 0.00272099 -0.000512423
3.30507e-05 0.00268971 -0.000503388
-4.82135e-05 0.00261938 -0.000496644
-2.41067e-05 0.00218833 -0.000445448
2.62678e-05 0.00317421 -0.000574008
3.81902e-05 0.00386002 -0.000668506
3.83963e-05 0.00394753 -0.00069532
4.33279e-05 0.00396268 -0.00071126
5.90406e-05 0.00396427 -0.000720744
8.57134e-05 0.00396376 -0.000726093
0.000121226 0.00396475 -0.000728647
0.00016255 0.00396852 -0.000728996
0.000206075 0.00397544 -0.000727282
0.000247727 0.00398535 -0.00072332
0.000282864 0.00399765 -0.00071694
0.00030649 0.00401106 -0.000707971
0.000313639 0.0040235 -0.000696532
0.00030007 0.00403224 -0.000682951
0.000262797 0.00403391 -0.000668026
0.000201211 0.00402486 -0.000652661
0.000117441 0.00400151 -0.000638544
1.85202e-05 0.00395829 -0.000627417
-7.39076e-05 0.00385262 -0.000619508
-3.69538e-05 0.00317756 -0.00055624
4.90413e-05 0.00436814 -0.000698304
7.23631e-05 0.00537913 -0.000810856
7.44705e-05 0.00551535 -0.000841557
7.71734e-05 0.00554114 -0.000860058
8.94462e-05 0.00554519 -0.000871185
0.00011281 0.00554436 -0.000877437
0.000145702 0.00554393 -0.000880374
0.000185254 0.00554585 -0.000880751
0.000227848 0.00555078 -0.000878785
0.000269254 0.00555876 -0.000874246
0.000304484 0.00556924 -0.000866883
0.000328025 0.00558089 -0.000856479
0.000334237 0.00559147 -0.000843112
0.000317958 0.00559782 -0.000827022
0.000275362 0.00559589 -0.000809274
0.000205006 0.00558128 -0.000791019
0.000108929 0.00554944 -0.000774064
-4.71443e-06 0.00549183 -0.000760855
-0.000107624 0.00534019 -0.000751952
-5.38119e-05 0.00435221 -0.00067587
7.68815e-05 0.00575743 -0.000824796
0.000115509 0.00717394 -0.000954372
0.000121164 0.00737412 -0.000988097
0.000121638 0.00741432 -0.00100887
0.000129571 0.00742215 -0.00102155
0.000148235 0.00742138 -0.0010287
0.000176796 0.0074193 -0.00103211
0.00021264 0.00741863 -0.00103273
0.000252282 0.0074204 -0.00103078
0.000291408 0.00742494 -0.00102595
0.000324808 0.00743188 -0.00101793
0.000346543 0.00743988 -0.00100642
0.000350294 0.00744664 -0.000991508
0.000329941 0.00744868 -0.000973321
0.000280722 0.00744132 -0.000952899
0.000200417 0.00741943 -0.000931764
9.08959e-05 0.00737738 -0.000912092
-3.81499e-05 0.00730253 -0.000897094
-0.000150663 0.0070923 -0.000887652
-7.53315e-05 0.00571579 -0.000798515
0.000109841 0.00733362 -0.000947052
0.000167895 0.00924066 -0.00109143
0.000178931 0.00952146 -0.00112687
0.000177367 0.00957995 -0.00114933
0.000180222 0.00959292 -0.0011633
0.000192878 0.00959274 -0.0011713
0.000215394 0.009589 -0.00117533
0.000245564 0.00958529 -0.00117643
0.000280159 0.0095832 -0.00117478
0.000314944 0.00958335 -0.00117005
0.000344485 0.00958554 -0.00116194
0.00036253 0.0095886 -0.00114987
0.000362117 0.00959015 -0.00113388
0.000336161 0.00958648 -0.00111419
0.000278919 0.00957244 -0.00109166
0.000187331 0.009542 -0.00106805
6.31211e-05 0.00948829 -0.00104603
-8.2026e-05 0.00939317 -0.00102957
-0.000203092 0.00910965 -0.00102015
-0.000101546 0.00726306 -0.000918328
0.000147427 0.00907775 -0.00105916
0.000228776 0.0115625 -0.00121512
0.000246972 0.0119412 -0.00125057
0.000243698 0.0120215 -0.0012738
0.000240939 0.0120408 -0.00128864
0.000246477 0.0120416 -0.00129739
0.000261451 0.0120364 -0.00130212
0.000284297 0.0120298 -0.00130387
0.000312098 0.0120238 -0.00130287
0.000340678 0.0120193 -0.00129873
0.000364607 0.0120163 -0.00129111
0.000377298 0.0120141 -0.00127932
0.000371214 0.0120102 -0.00126304
0.000338349 0.0120005 -0.00124261
0.000271785 0.0119795 -0.00121888
0.000167575 0.0119403 -0.00119361
2.73653e-05 0.0118743 -0.00116987
-0.000134886 0.011756 -0.00115245
-0.000263733 0.0113825 -0.00114371
-0.000131866 0.00897947 -0.00103044
0.000188412 0.0109629 -0.00115718
0.000295966 0.0141121 -0.00132097
0.000322693 0.0146055 -0.00135437
0.000318 0.0147102 -0.0013772
0.000309278 0.0147361 -0.00139231
0.000306981 0.0147383 -0.00140156
0.000313541 0.014732 -0.00140694
0.000328012 0.014723 -0.00140948
0.000347834 0.0147135 -0.00140946
0.000368958 0.014705 -0.00140654
0.000386219 0.0146976 -0.00139991
0.000392722 0.0146908 -0.00138927
0.000380167 0.0146825 -0.00137402
0.000339635 0.0146683 -0.00135408
0.000263022 0.014642 -0.00133028
0.000145279 0.0145957 -0.0013044
-1.22345e-05 0.0145183 -0.00127996
-0.000193037 0.0143744 -0.0012626
-0.000329958 0.013893 -0.00125514
-0.000164979 0.0108442 -0.00113148
0.00023063 0.0129605 -0.00124131
0.000365419 0.0168579 -0.00140948
0.00040101 0.017481 -0.00143862
0.000394886 0.0176107 -0.00145965
0.000380096 0.0176423 -0.00147425
0.00036985 0.0176456 -0.00148361
0.000367856 0.0176387 -0.00148942
0.000373736 0.017628 -0.00149284
0.000385394 0.0176162 -0.00149397
0.000398998 0.017605 -0.00149281
0.0004096 0.0175951 -0.00148809
0.000410129 0.0175861 -0.00147943
0.000391664 0.0175761 -0.00146626
0.000344242 0.0175609 -0.00144823
0.000258265 0.0175337 -0.00142593
0.000127031 0.0174848 -0.00140102
-4.87261e-05 0.0173999 -0.00137714
-0.000249876 0.0172298 -0.00136086
-0.000396272 0.0166218 -0.00135547
-0.000198136 0.0128357 -0.00122194
0.000270756 0.0150517 -0.00131883
0.000430608 0.0197767 -0.00148966
0.000473499 0.0205411 -0.00151252
0.000465266 0.0206933 -0.00153023
0.000444502 0.0207279 -0.00154335
0.000426905 0.0207311 -0.00155218
0.000417197 0.0207236 -0.00155813
0.000415385 0.0207121 -0.00156251
0.000419873 0.0206995 -0.00156487
0.000427343 0.0206876 -0.00156538
0.000432889 0.0206776 -0.00156318
0.000429487 0.0206697 -0.0015575
0.000407802 0.0206628 -0.00154754
0.000356667 0.0206527 -0.00153287
0.000264478 0.0206323 -0.00151379
0.000122039 0.0205897 -0.00149168
-7.16475e-05 0.0205055 -0.00147002
-0.000295081 0.0203123 -0.00145581
-0.000454573 0.0195593 -0.00145304
-0.000227286 0.0149415 -0.00130935
0.000303848 0.0172461 -0.00140857
0.000481562 0.0228751 -0.00158425
0.000527158 0.0237864 -0.00159939
0.000515051 0.023954 -0.00161226
0.000488572 0.0239862 -0.00162277
0.000464954 0.0239869 -0.00163045
0.000449327 0.0239783 -0.0016361
0.000442096 0.0239665 -0.001641
0.000441846 0.0239545 -0.00164475
0.000445878 0.0239439 -0.00164709
0.000449814 0.0239367 -0.00164751
0.000446911 0.023934 -0.00164525
0.000427571 0.0239358 -0.00163947
0.000379377 0.023939 -0.00162958
0.000288153 0.0239363 -0.00161539
0.000140905 0.0239141 -0.00159792
-6.72014e-05 0.0238454 -0.00158039
-0.000314435 0.0236387 -0.00156972
-0.000493833 0.0227254 -0.00156956
-0.000246917 0.0171769 -0.00141158
0.000322541 0.0196132 -0.00154837
0.000503169 0.0262242 -0.00173851
0.00054234 0.0272785 -0.00174558
0.000523055 0.0274477 -0.00175219
0.000491241 0.0274689 -0.00175892
0.000463854 0.0274631 -0.00176472
0.000445264 0.0274524 -0.00176977
0.000436056 0.0274406 -0.00177434
0.000434992 0.0274298 -0.00177886
0.000439884 0.0274218 -0.00178292
0.000447376 0.0274194 -0.00178585
0.000451534 0.0274252 -0.00178707
0.000443148 0.027441 -0.00178584
0.00040895 0.027466 -0.00178155
0.000331743 0.0274946 -0.00177368
0.000192753 0.0275118 -0.0017627
-2.01399e-05 0.0274824 -0.00175117
-0.000289701 0.0272825 -0.00174532
-0.000498504 0.0262014 -0.00174712
-0.000249252 0.0196129 -0.00156423
0.000314876 0.0223367 -0.0018107
0.0004713 0.030019 -0.00203836
0.0004886 0.0311969 -0.0020386
0.000457168 0.0313448 -0.0020378
0.000420854 0.031343 -0.00203977
0.000393348 0.0313258 -0.00204247
0.000376529 0.0313107 -0.00204624
0.000370109 0.0312982 -0.00205037
0.000373077 0.0312884 -0.00205503
0.00038429 0.0312831 -0.00205991
0.000401723 0.0312859 -0.00206457
0.000421093 0.0313012 -0.00206874
0.000434765 0.0313337 -0.00207181
0.000429963 0.0313868 -0.00207313
0.000386936 0.031459 -0.00207225
0.000279684 0.0315378 -0.00206914
8.32886e-05 0.0315812 -0.0020653
-0.00019873 0.0314257 -0.00206531
-0.000447823 0.0301864 -0.00206686
-0.000223912 0.0224269 -0.00183646
0.000258554 0.0258248 -0.00234055
0.000344017 0.0346947 -0.0026537
0.00031584 0.0359504 -0.00265066
0.000266399 0.036043 -0.00264155
0.000228223 0.0360034 -0.00263823
0.000206244 0.0359696 -0.00263736
0.000197907 0.0359481 -0.00263864
0.00020105 0.0359333 -0.00264142
0.00021467 0.0359231 -0.00264535
0.000238771 0.0359188 -0.00265002
0.000273072 0.0359247 -0.00265536
0.000316171 0.0359468 -0.00266125
0.000363943 0.0359936 -0.0026674
0.000406709 0.0360741 -0.00267345
0.000425207 0.0361955 -0.00267913
0.000387081 0.0363546 -0.00268414
0.000249082 0.0365109 -0.00268903
-1.58128e-05 0.0364612 -0.00269597
-0.00031158 0.0351077 -0.00269355
-0.00015579 0.0260068 -0.00236861
0.000105912 0.030961 -0.00345394
4.09056e-05 0.0411804 -0.00394915
-6.51445e-05 0.0424231 -0.00394994
-0.000136319 0.0424156 -0.00393224
-0.000168369 0.0423249 -0.0039222
-0.000173809 0.0422707 -0.00391727
-0.0001626 0.0422408 -0.00391563
-0.00013932 0.0422216 -0.00391611
-0.000105119 0.0422083 -0.00391812
-5.91505e-05 0.0422017 -0.0039214
3.62725e-07 0.042206 -0.003926
7.57218e-05 0.0422284 -0.00393194
0.00016852 0.0422802 -0.0039393
0.00027654 0.0423768 -0.0039482
0.000388033 0.0425374 -0.0039587
0.00047174 0.0427782 -0.00397067
0.000466314 0.0430796 -0.00398417
0.000291839 0.0432213 -0.0039983
-3.42796e-05 0.0418655 -0.00398594
-1.71398e-05 0.0311972 -0.00347289
-0.00025867 0.0396811 -0.00584917
-0.000606967 0.051426 -0.0067025
-0.000823899 0.0524936 -0.00671891
-0.000905952 0.0523423 -0.00669519
-0.000908656 0.0521978 -0.00667862
-0.00087222 0.0521244 -0.00666876
-0.000816667 0.0520851 -0.00666329
-0.000749744 0.0520591 -0.00666053
-0.000673389 0.0520399 -0.00665969
-0.000586536 0.0520271 -0.00666048
-0.000485814 0.0520245 -0.00666298
-0.000365374 0.0520387 -0.00666737
-0.000216804 0.0520813 -0.00667407
-3.01757e-05 0.0521715 -0.00668356
0.000201114 0.0523388 -0.00669624
0.000466718 0.0526248 -0.0067125
0.000709914 0.0530577 -0.00673212
0.000789638 0.0534667 -0.00675155
0.00053139 0.0523352 -0.00672086
0.000265695 0.0398881 -0.00585107
-0.00114045 0.0547504 -0.00952498
-0.00195491 0.0675641 -0.0106912
-0.00225594 0.0682294 -0.0107341
-0.00226557 0.0679491 -0.0107116
-0.00215167 0.0677784 -0.0106907
-0.00199268 0.0676976 -0.0106761
-0.00182003 0.0676527 -0.0106664
-0.001645 0.0676215 -0.01066
-0.00147086 0.0675973 -0.010656
-0.00129689 0.0675794 -0.010654
-0.00111913 0.0675695 -0.0106541
-0.00092948 0.067572 -0.0106565
-0.000713855 0.0675954 -0.0106619
-0.000449313 0.0676555 -0.010671
-0.000101708 0.0677815 -0.0106848
0.00037003 0.0680258 -0.0107033
0.000984147 0.0684658 -0.0107249
0.00162671 0.0690675 -0.0107413
0.00181177 0.0684666 -0.0106885
0.000905885 0.054862 -0.00952258
-0.00305437 0.0273752 0.038053
-0.004115 0.0337821 0.0415024
-0.00405467 0.0341147 0.0414996
-0.00363278 0.0339745 0.0414946
-0.0031471 0.0338892 0.0415126
-0.00269024 0.0338488 0.0415295
-0.00228507 0.0338263 0.0415416
-0.00193242 0.0338108 0.0415502
-0.00162634 0.0337987 0.0415562
-0.0013588 0.0337897 0.0415599
-0.00112038 0.0337847 0.0415611
-0.000899363 0.033786 0.0415594
-0.000679072 0.0337977 0.0415535
-0.000432302 0.0338278 0.0415417
-0.000110263 0.0338907 0.0415218
0.000379781 0.0340129 0.0414926
0.00121025 0.0342329 0.0414596
0.00261616 0.0345338 0.0414513
0.0042798 0.0342333 0.0414455
0.0021399 0.027431 0.0380318
-3.4313e-05 0.00022954 -0.00045917
-4.73927e-05 0.000270178 -0.00054399
-4.9835e-05 0.000272048 -0.000567891
-4.02012e-05 0.000270806 -0.000582867
-1.93619e-05 0.000270086 -0.000593274
1.03482e-05 0.000270416 -0.000600899
4.60977e-05 0.000271752 -0.000606638
8.5009e-05 0.000274021 -0.000610652
0.000124099 0.000277123 -0.000612692
0.000160167 0.000280873 -0.000612389
0.000189968 0.000285077 -0.000609341
0.000210422 0.00028951 -0.000603239
0.000218782 0.00029376 -0.000594195
0.000213064 0.000297254 -0.000582602
0.000192434 0.00029948 -0.000569203
0.00015775 0.000299894 -0.00055499
0.000111715 0.000297893 -0.000541265
5.92199e-05 0.000292786 -0.0005292
6.86441e-06 0.000282469 -0.000517296
3.43221e-06 0.000237775 -0.000448976
-2.90761e-05 0.000697642 -0.000650762
-4.68226e-05 0.000826579 -0.000791466
-5.47249e-05 0.00083576 -0.000829707
-4.85044e-05 0.000833514 -0.000851362
-2.7951e-05 0.000831354 -0.000865411
4.96133e-06 0.00083125 -0.000875057
4.7491e-05 0.000833488 -0.00088176
9.6557e-05 0.000838013 -0.000885888
0.000148637 0.000844628 -0.000887296
0.000199773 0.000853025 -0.000885518
0.000245726 0.000862857 -0.000880008
0.000282059 0.000873508 -0.000870462
0.000304407 0.000883953 -0.000857062
0.000309221 0.00089293 -0.000840282
0.000294202 0.000899003 -0.000821065
0.000258929 0.00090063 -0.000800752
0.000205148 0.000896297 -0.00078102
0.000137329 0.000884135 -0.000763416
6.2394e-05 0.000856459 -0.000744593
3.1197e-05 0.000714812 -0.000637542
-2.04525e-05 0.00137218 -0.000874303
-3.74049e-05 0.00165486 -0.00106478
-4.74693e-05 0.00168054 -0.00111643
-4.33094e-05 0.00167891 -0.00114461
-2.36692e-05 0.00167536 -0.001162
9.78115e-06 0.00167435 -0.00117317
5.43623e-05 0.0016768 -0.00118025
0.00010693 0.00168282 -0.00118396
0.000163851 0.00169222 -0.00118423
0.000221012 0.0017047 -0.00118053
0.00027373 0.00171973 -0.00117224
0.000316866 0.00173629 -0.00115909
0.000345268 0.00175281 -0.00114114
0.000354386 0.00176726 -0.00111889
0.000340864 0.00177714 -0.00109351
0.000303351 0.00177976 -0.00106663
0.000242678 0.00177229 -0.00104037
0.000162519 0.00175125 -0.00101671
7.13185e-05 0.00169851 -0.000991122
3.56593e-05 0.00139788 -0.000849757
-8.20602e-06 0.00226885 -0.00115737
-2.17951e-05 0.00278672 -0.00140622
-3.31233e-05 0.00284207 -0.00147281
-3.09371e-05 0.00284391 -0.00150842
-1.24962e-05 0.00283956 -0.00152967
2.09831e-05 0.00283733 -0.00154263
6.69293e-05 0.00283917 -0.0015502
0.000122152 0.00284555 -0.00155351
0.000182974 0.00285644 -0.00155256
0.000245053 0.00287157 -0.00154679
0.000303239 0.00289025 -0.00153553
0.000351786 0.00291127 -0.00151832
0.000384705 0.00293249 -0.00149517
0.000396366 0.00295111 -0.00146655
0.000382282 0.00296353 -0.00143397
0.000339935 0.00296591 -0.00139936
0.000269457 0.00295403 -0.00136538
0.00017431 0.0029218 -0.00133438
6.65311e-05 0.00283329 -0.00130086
3.32655e-05 0.00229668 -0.00111749
8.93451e-06 0.00341329 -0.00148486
2.08617e-06 0.00426458 -0.00179907
-9.20654e-06 0.00436712 -0.00188152
-8.98349e-06 0.00437652 -0.00192514
7.58521e-06 0.00437244 -0.00195067
4.00594e-05 0.00436884 -0.00196568
8.61399e-05 0.00436926 -0.00197393
0.000142731 0.00437471 -0.00197695
0.000206133 0.00438537 -0.00197489
0.000271795 0.00440112 -0.00196714
0.000334272 0.00442131 -0.0019529
0.000387153 0.00444447 -0.0019315
0.000423558 0.0044681 -0.00190285
0.000436695 0.00448881 -0.00186741
0.000420925 0.00450178 -0.00182697
0.000372452 0.00450194 -0.00178389
0.000290499 0.00448366 -0.0017413
0.000178577 0.00443703 -0.00170234
5.38378e-05 0.0042984 -0.00166033
2.69189e-05 0.00343347 -0.00142861
3.22423e-05 0.00482847 -0.00184152
3.66105e-05 0.00612817 -0.00222491
2.72755e-05 0.00629997 -0.00232324
2.57724e-05 0.00632223 -0.00237502
3.9741e-05 0.00631998 -0.00240504
6.99353e-05 0.00631521 -0.00242228
0.000114516 0.00631355 -0.00243136
0.000170541 0.00631672 -0.00243434
0.000234417 0.00632526 -0.00243152
0.000301575 0.00633936 -0.00242213
0.000366263 0.00635844 -0.00240518
0.000421536 0.00638101 -0.00237983
0.000459799 0.00640422 -0.00234581
0.000472877 0.00642417 -0.00230369
0.000453864 0.00643519 -0.00225518
0.000397764 0.00643079 -0.00220311
0.000302706 0.00640356 -0.00215145
0.000172379 0.00633814 -0.00210437
3.04949e-05 0.00613108 -0.00205381
1.52474e-05 0.00483017 -0.0017694
6.27343e-05 0.00652828 -0.00221114
8.37263e-05 0.00840703 -0.00266405
7.88465e-05 0.00867461 -0.00277717
7.61711e-05 0.00871621 -0.00283668
8.69648e-05 0.0087179 -0.00287105
0.000113555 0.00871245 -0.00289053
0.000154713 0.00870824 -0.0029007
0.000207845 0.00870792 -0.00290409
0.000269647 0.00871261 -0.00290097
0.000335584 0.00872282 -0.00289056
0.000399784 0.00873814 -0.00287162
0.000454813 0.00875724 -0.00284319
0.000492459 0.00877717 -0.00280442
0.000503434 0.00879335 -0.00275605
0.00047927 0.00879946 -0.00269987
0.000413551 0.00878767 -0.00263903
0.000303287 0.00874852 -0.00257832
0.000152794 0.0086591 -0.00252313
-6.03638e-06 0.00836121 -0.00246422
-3.01819e-06 0.00650162 -0.002125
0.00010092 0.0085138 -0.00257613
0.000144543 0.0111155 -0.00309516
0.00014707 0.0115094 -0.00322073
0.000144103 0.0115777 -0.00328681
0.000151338 0.0115858 -0.00332499
0.000173035 0.0115805 -0.00334665
0.000208826 0.0115735 -0.00335816
0.000256669 0.0115689 -0.00336241
0.000313648 0.0115685 -0.0033597
0.000375355 0.011573 -0.00334924
0.000436033 0.0115824 -0.00332943
0.000487958 0.0115955 -0.0032992
0.000522119 0.0116095 -0.00325727
0.00052829 0.0116192 -0.00320404
0.000496535 0.0116177 -0.00314126
0.000418864 0.0115958 -0.00307253
0.0002912 0.0115417 -0.00300342
0.000118674 0.0114222 -0.0029406
-5.6634e-05 0.0110068 -0.0028739
-2.8317e-05 0.00845141 -0.00247968
0.000146584 0.0107713 -0.00291904
0.000218865 0.0142497 -0.0034973
0.000231905 0.0148035 -0.00363169
0.000229739 0.0149064 -0.00370231
0.000233207 0.0149233 -0.00374331
0.000248919 0.0149189 -0.00376687
0.000277656 0.0149095 -0.00377983
0.000318087 0.0149005 -0.00378533
0.00036773 0.0148943 -0.00378381
0.000422417 0.014892 -0.00377458
0.00047656 0.0148942 -0.00375556
0.0005225 0.0148998 -0.00372524
0.000550427 0.0149059 -0.00368225
0.000549082 0.0149074 -0.00362645
0.000507172 0.0148963 -0.00355931