# vtk DataFile Version 2.0 
Visualization 
ASCII 
DATASET STRUCTURED_GRID 
DIMENSIONS 21 21 11
POINTS 4851 float
-0.1 -0.1 -0.1
0 -0.1 -0.1
0.1 -0.1 -0.1
0.2 -0.1 -0.1
0.3 -0.1 -0.1
0.4 -0.1 -0.1
0.5 -0.1 -0.1
0.6 -0.1 -0.1
0.7 -0.1 -0.1
0.8 -0.1 -0.1
0.9 -0.1 -0.1
1 -0.1 -0.1
1.1 -0.1 -0.1
1.2 -0.1 -0.1
1.3 -0.1 -0.1
1.4 -0.1 -0.1
1.5 -0.1 -0.1
1.6 -0.1 -0.1
1.7 -0.1 -0.1
1.8 -0.1 -0.1
1.9 -0.1 -0.1
-0.1 0 -0.1
0 0 -0.1
0.1 0 -0.1
0.2 0 -0.1
0.3 0 -0.1
0.4 0 -0.1
0.5 0 -0.1
0.6 0 -0.1
0.7 0 -0.1
0.8 0 -0.1
0.9 0 -0.1
1 0 -0.1
1.1 0 -0.1
1.2 0 -0.1
1.3 0 -0.1
1.4 0 -0.1
1.5 0 -0.1
1.6 0 -0.1
1.7 0 -0.1
1.8 0 -0.1
1.9 0 -0.1
-0.1 0.1 -0.1
0 0.1 -0.1
0.1 0.1 -0.1
0.2 0.1 -0.1
0.3 0.1 -0.1
0.4 0.1 -0.1
0.5 0.1 -0.1
0.6 0.1 -0.1
0.7 0.1 -0.1
0.8 0.1 -0.1
0.9 0.1 -0.1
1 0.1 -0.1
1.1 0.1 -0.1
1.2 0.1 -0.1
1.3 0.1 -0.1
1.4 0.1 -0.1
1.5 0.1 -0.1
1.6 0.1 -0.1
1.7 0.1 -0.1
1.8 0.1 -0.1
1.9 0.1 -0.1
-0.1 0.2 -0.1
0 0.2 -0.1
0.1 0.2 -0.1
0.2 0.2 -0.1
0.3 0.2 -0.1
0.4 0.2 -0.1
0.5 0.2 -0.1
0.6 0.2 -0.1
0.7 0.2 -0.1
0.8 0.2 -0.1
0.9 0.2 -0.1
1 0.2 -0.1
1.1 0.2 -0.1
1.2 0.2 -0.1
1.3 0.2 -0.1
1.4 0.2 -0.1
1.5 0.2 -0.1
1.6 0.2 -0.1
1.7 0.2 -0.1
1.8 0.2 -0.1
1.9 0.2 -0.1
-0.1 0.3 -0.1
0 0.3 -0.1
0.1 0.3 -0.1
0.2 0.3 -0.1
0.3 0.3 -0.1
0.4 0.3 -0.1
0.5 0.3 -0.1
0.6 0.3 -0.1
0.7 0.3 -0.1
0.8 0.3 -0.1
0.9 0.3 -0.1
1 0.3 -0.1
1.1 0.3 -0.1
1.2 0.3 -0.1
1.3 0.3 -0.1
1.4 0.3 -0.1
1.5 0.3 -0.1
1.6 0.3 -0.1
1.7 0.3 -0.1
1.8 0.3 -0.1
1.9 0.3 -0.1
-0.1 0.4 -0.1
0 0.4 -0.1
0.1 0.4 -0.1
0.2 0.4 -0.1
0.3 0.4 -0.1
0.4 0.4 -0.1
0.5 0.4 -0.1
0.6 0.4 -0.1
0.7 0.4 -0.1
0.8 0.4 -0.1
0.9 0.4 -0.1
1 0.4 -0.1
1.1 0.4 -0.1
1.2 0.4 -0.1
1.3 0.4 -0.1
1.4 0.4 -0.1
1.5 0.4 -0.1
1.6 0.4 -0.1
1.7 0.4 -0.1
1.8 0.4 -0.1
1.9 0.4 -0.1
-0.1 0.5 -0.1
0 0.5 -0.1
0.1 0.5 -0.1
0.2 0.5 -0.1
0.3 0.5 -0.1
0.4 0.5 -0.1
0.5 0.5 -0.1
0.6 0.5 -0.1
0.7 0.5 -0.1
0.8 0.5 -0.1
0.9 0.5 -0.1
1 0.5 -0.1
1.1 0.5 -0.1
1.2 0.5 -0.1
1.3 0.5 -0.1
1.4 0.5 -0.1
1.5 0.5 -0.1
1.6 0.5 -0.1
1.7 0.5 -0.1
1.8 0.5 -0.1
1.9 0.5 -0.1
-0.1 0.6 -0.1
0 0.6 -0.1
0.1 0.6 -0.1
0.2 0.6 -0.1
0.3 0.6 -0.1
0.4 0.6 -0.1
0.5 0.6 -0.1
0.6 0.6 -0.1
0.7 0.6 -0.1
0.8 0.6 -0.1
0.9 0.6 -0.1
1 0.6 -0.1
1.1 0.6 -0.1
1.2 0.6 -0.1
1.3 0.6 -0.1
1.4 0.6 -0.1
1.5 0.6 -0.1
1.6 0.6 -0.1
1.7 0.6 -0.1
1.8 0.6 -0.1
1.9 0.6 -0.1
-0.1 0.7 -0.1
0 0.7 -0.1
0.1 0.7 -0.1
0.2 0.7 -0.1
0.3 0.7 -0.1
0.4 0.7 -0.1
0.5 0.7 -0.1
0.6 0.7 -0.1
0.7 0.7 -0.1
0.8 0.7 -0.1
0.9 0.7 -0.1
1 0.7 -0.1
1.1 0.7 -0.1
1.2 0.7 -0.1
1.3 0.7 -0.1
1.4 0.7 -0.1
1.5 0.7 -0.1
1.6 0.7 -0.1
1.7 0.7 -0.1
1.8 0.7 -0.1
1.9 0.7 -0.1
-0.1 0.8 -0.1
0 0.8 -0.1
0.1 0.8 -0.1
0.2 0.8 -0.1
0.3 0.8 -0.1
0.4 0.8 -0.1
0.5 0.8 -0.1
0.6 0.8 -0.1
0.7 0.8 -0.1
0.8 0.8 -0.1
0.9 0.8 -0.1
1 0.8 -0.1
1.1 0.8 -0.1
1.2 0.8 -0.1
1.3 0.8 -0.1
1.4 0.8 -0.1
1.5 0.8 -0.1
1.6 0.8 -0.1
1.7 0.8 -0.1
1.8 0.8 -0.1
1.9 0.8 -0.1
-0.1 0.9 -0.1
0 0.9 -0.1
0.1 0.9 -0.1
0.2 0.9 -0.1
0.3 0.9 -0.1
0.4 0.9 -0.1
0.5 0.9 -0.1
0.6 0.9 -0.1
0.7 0.9 -0.1
0.8 0.9 -0.1
0.9 0.9 -0.1
1 0.9 -0.1
1.1 0.9 -0.1
1.2 0.9 -0.1
1.3 0.9 -0.1
1.4 0.9 -0.1
1.5 0.9 -0.1
1.6 0.9 -0.1
1.7 0.9 -0.1
1.8 0.9 -0.1
1.9 0.9 -0.1
-0.1 1 -0.1
0 1 -0.1
0.1 1 -0.1
0.2 1 -0.1
0.3 1 -0.1
0.4 1 -0.1
0.5 1 -0.1
0.6 1 -0.1
0.7 1 -0.1
0.8 1 -0.1
0.9 1 -0.1
1 1 -0.1
1.1 1 -0.1
1.2 1 -0.1
1.3 1 -0.1
1.4 1 -0.1
1.5 1 -0.1
1.6 1 -0.1
1.7 1 -0.1
1.8 1 -0.1
1.9 1 -0.1
-0.1 1.1 -0.1
0 1.1 -0.1
0.1 1.1 -0.1
0.2 1.1 -0.1
0.3 1.1 -0.1
0.4 1.1 -0.1
0.5 1.1 -0.1
0.6 1.1 -0.1
0.7 1.1 -0.1
0.8 1.1 -0.1
0.9 1.1 -0.1
1 1.1 -0.1
1.1 1.1 -0.1
1.2 1.1 -0.1
1.3 1.1 -0.1
1.4 1.1 -0.1
1.5 1.1 -0.1
1.6 1.1 -0.1
1.7 1.1 -0.1
1.8 1.1 -0.1
1.9 1.1 -0.1
-0.1 1.2 -0.1
0 1.2 -0.1
0.1 1.2 -0.1
0.2 1.2 -0.1
0.3 1.2 -0.1
0.4 1.2 -0.1
0.5 1.2 -0.1
0.6 1.2 -0.1
0.7 1.2 -0.1
0.8 1.2 -0.1
0.9 1.2 -0.1
1 1.2 -0.1
1.1 1.2 -0.1
1.2 1.2 -0.1
1.3 1.2 -0.1
1.4 1.2 -0.1
1.5 1.2 -0.1
1.6 1.2 -0.1
1.7 1.2 -0.1
1.8 1.2 -0.1
1.9 1.2 -0.1
-0.1 1.3 -0.1
0 1.3 -0.1
0.1 1.3 -0.1
0.2 1.3 -0.1
0.3 1.3 -0.1
0.4 1.3 -0.1
0.5 1.3 -0.1
0.6 1.3 -0.1
0.7 1.3 -0.1
0.8 1.3 -0.1
0.9 1.3 -0.1
1 1.3 -0.1
1.1 1.3 -0.1
1.2 1.3 -0.1
1.3 1.3 -0.1
1.4 1.3 -0.1
1.5 1.3 -0.1
1.6 1.3 -0.1
1.7 1.3 -0.1
1.8 1.3 -0.1
1.9 1.3 -0.1
-0.1 1.4 -0.1
0 1.4 -0.1
0.1 1.4 -0.1
0.2 1.4 -0.1
0.3 1.4 -0.1
0.4 1.4 -0.1
0.5 1.4 -0.1
0.6 1.4 -0.1
0.7 1.4 -0.1
0.8 1.4 -0.1
0.9 1.4 -0.1
1 1.4 -0.1
1.1 1.4 -0.1
1.2 1.4 -0.1
1.3 1.4 -0.1
1.4 1.4 -0.1
1.5 1.4 -0.1
1.6 1.4 -0.1
1.7 1.4 -0.1
1.8 1.4 -0.1
1.9 1.4 -0.1
-0.1 1.5 -0.1
0 1.5 -0.1
0.1 1.5 -0.1
0.2 1.5 -0.1
0.3 1.5 -0.1
0.4 1.5 -0.1
0.5 1.5 -0.1
0.6 1.5 -0.1
0.7 1.5 -0.1
0.8 1.5 -0.1
0.9 1.5 -0.1
1 1.5 -0.1
1.1 1.5 -0.1
1.2 1.5 -0.1
1.3 1.5 -0.1
1.4 1.5 -0.1
1.5 1.5 -0.1
1.6 1.5 -0.1
1.7 1.5 -0.1
1.8 1.5 -0.1
1.9 1.5 -0.1
-0.1 1.6 -0.1
0 1.6 -0.1
0.1 1.6 -0.1
0.2 1.6 -0.1
0.3 1.6 -0.1
0.4 1.6 -0.1
0.5 1.6 -0.1
0.6 1.6 -0.1
0.7 1.6 -0.1
0.8 1.6 -0.1
0.9 1.6 -0.1
1 1.6 -0.1
1.1 1.6 -0.1
1.2 1.6 -0.1
1.3 1.6 -0.1
1.4 1.6 -0.1
1.5 1.6 -0.1
1.6 1.6 -0.1
1.7 1.6 -0.1
1.8 1.6 -0.1
1.9 1.6 -0.1
-0.1 1.7 -0.1
0 1.7 -0.1
0.1 1.7 -0.1
0.2 1.7 -0.1
0.3 1.7 -0.1
0.4 1.7 -0.1
0.5 1.7 -0.1
0.6 1.7 -0.1
0.7 1.7 -0.1
0.8 1.7 -0.1
0.9 1.7 -0.1
1 1.7 -0.1
1.1 1.7 -0.1
1.2 1.7 -0.1
1.3 1.7 -0.1
1.4 1.7 -0.1
1.5 1.7 -0.1
1.6 1.7 -0.1
1.7 1.7 -0.1
1.8 1.7 -0.1
1.9 1.7 -0.1
-0.1 1.8 -0.1
0 1.8 -0.1
0.1 1.8 -0.1
0.2 1.8 -0.1
0.3 1.8 -0.1
0.4 1.8 -0.1
0.5 1.8 -0.1
0.6 1.8 -0.1
0.7 1.8 -0.1
0.8 1.8 -0.1
0.9 1.8 -0.1
1 1.8 -0.1
1.1 1.8 -0.1
1.2 1.8 -0.1
1.3 1.8 -0.1
1.4 1.8 -0.1
1.5 1.8 -0.1
1.6 1.8 -0.1
1.7 1.8 -0.1
1.8 1.8 -0.1
1.9 1.8 -0.1
-0.1 1.9 -0.1
0 1.9 -0.1
0.1 1.9 -0.1
0.2 1.9 -0.1
0.3 1.9 -0.1
0.4 1.9 -0.1
0.5 1.9 -0.1
0.6 1.9 -0.1
0.7 1.9 -0.1
0.8 1.9 -0.1
0.9 1.9 -0.1
1 1.9 -0.1
1.1 1.9 -0.1
1.2 1.9 -0.1
1.3 1.9 -0.1
1.4 1.9 -0.1
1.5 1.9 -0.1
1.6 1.9 -0.1
1.7 1.9 -0.1
1.8 1.9 -0.1
1.9 1.9 -0.1
-0.1 -0.1 0
0 -0.1 0
0.1 -0.1 0
0.2 -0.1 0
0.3 -0.1 0
0.4 -0.1 0
0.5 -0.1 0
0.6 -0.1 0
0.7 -0.1 0
0.8 -0.1 0
0.9 -0.1 0
1 -0.1 0
1.1 -0.1 0
1.2 -0.1 0
1.3 -0.1 0
1.4 -0.1 0
1.5 -0.1 0
1.6 -0.1 0
1.7 -0.1 0
1.8 -0.1 0
1.9 -0.1 0
-0.1 0 0
0 0 0
0.1 0 0
0.2 0 0
0.3 0 0
0.4 0 0
0.5 0 0
0.6 0 0
0.7 0 0
0.8 0 0
0.9 0 0
1 0 0
1.1 0 0
1.2 0 0
1.3 0 0
1.4 0 0
1.5 0 0
1.6 0 0
1.7 0 0
1.8 0 0
1.9 0 0
-0.1 0.1 0
0 0.1 0
0.1 0.1 0
0.2 0.1 0
0.3 0.1 0
0.4 0.1 0
0.5 0.1 0
0.6 0.1 0
0.7 0.1 0
0.8 0.1 0
0.9 0.1 0
1 0.1 0
1.1 0.1 0
1.2 0.1 0
1.3 0.1 0
1.4 0.1 0
1.5 0.1 0
1.6 0.1 0
1.7 0.1 0
1.8 0.1 0
1.9 0.1 0
-0.1 0.2 0
0 0.2 0
0.1 0.2 0
0.2 0.2 0
0.3 0.2 0
0.4 0.2 0
0.5 0.2 0
0.6 0.2 0
0.7 0.2 0
0.8 0.2 0
0.9 0.2 0
1 0.2 0
1.1 0.2 0
1.2 0.2 0
1.3 0.2 0
1.4 0.2 0
1.5 0.2 0
1.6 0.2 0
1.7 0.2 0
1.8 0.2 0
1.9 0.2 0
-0.1 0.3 0
0 0.3 0
0.1 0.3 0
0.2 0.3 0
0.3 0.3 0
0.4 0.3 0
0.5 0.3 0
0.6 0.3 0
0.7 0.3 0
0.8 0.3 0
0.9 0.3 0
1 0.3 0
1.1 0.3 0
1.2 0.3 0
1.3 0.3 0
1.4 0.3 0
1.5 0.3 0
1.6 0.3 0
1.7 0.3 0
1.8 0.3 0
1.9 0.3 0
-0.1 0.4 0
0 0.4 0
0.1 0.4 0
0.2 0.4 0
0.3 0.4 0
0.4 0.4 0
0.5 0.4 0
0.6 0.4 0
0.7 0.4 0
0.8 0.4 0
0.9 0.4 0
1 0.4 0
1.1 0.4 0
1.2 0.4 0
1.3 0.4 0
1.4 0.4 0
1.5 0.4 0
1.6 0.4 0
1.7 0.4 0
1.8 0.4 0
1.9 0.4 0
-0.1 0.5 0
0 0.5 0
0.1 0.5 0
0.2 0.5 0
0.3 0.5 0
0.4 0.5 0
0.5 0.5 0
0.6 0.5 0
0.7 0.5 0
0.8 0.5 0
0.9 0.5 0
1 0.5 0
1.1 0.5 0
1.2 0.5 0
1.3 0.5 0
1.4 0.5 0
1.5 0.5 0
1.6 0.5 0
1.7 0.5 0
1.8 0.5 0
1.9 0.5 0
-0.1 0.6 0
0 0.6 0
0.1 0.6 0
0.2 0.6 0
0.3 0.6 0
0.4 0.6 0
0.5 0.6 0
0.6 0.6 0
0.7 0.6 0
0.8 0.6 0
0.9 0.6 0
1 0.6 0
1.1 0.6 0
1.2 0.6 0
1.3 0.6 0
1.4 0.6 0
1.5 0.6 0
1.6 0.6 0
1.7 0.6 0
1.8 0.6 0
1.9 0.6 0
-0.1 0.7 0
0 0.7 0
0.1 0.7 0
0.2 0.7 0
0.3 0.7 0
0.4 0.7 0
0.5 0.7 0
0.6 0.7 0
0.7 0.7 0
0.8 0.7 0
0.9 0.7 0
1 0.7 0
1.1 0.7 0
1.2 0.7 0
1.3 0.7 0
1.4 0.7 0
1.5 0.7 0
1.6 0.7 0
1.7 0.7 0
1.8 0.7 0
1.9 0.7 0
-0.1 0.8 0
0 0.8 0
0.1 0.8 0
0.2 0.8 0
0.3 0.8 0
0.4 0.8 0
0.5 0.8 0
0.6 0.8 0
0.7 0.8 0
0.8 0.8 0
0.9 0.8 0
1 0.8 0
1.1 0.8 0
1.2 0.8 0
1.3 0.8 0
1.4 0.8 0
1.5 0.8 0
1.6 0.8 0
1.7 0.8 0
1.8 0.8 0
1.9 0.8 0
-0.1 0.9 0
0 0.9 0
0.1 0.9 0
0.2 0.9 0
0.3 0.9 0
0.4 0.9 0
0.5 0.9 0
0.6 0.9 0
0.7 0.9 0
0.8 0.9 0
0.9 0.9 0
1 0.9 0
1.1 0.9 0
1.2 0.9 0
1.3 0.9 0
1.4 0.9 0
1.5 0.9 0
1.6 0.9 0
1.7 0.9 0
1.8 0.9 0
1.9 0.9 0
-0.1 1 0
0 1 0
0.1 1 0
0.2 1 0
0.3 1 0
0.4 1 0
0.5 1 0
0.6 1 0
0.7 1 0
0.8 1 0
0.9 1 0
1 1 0
1.1 1 0
1.2 1 0
1.3 1 0
1.4 1 0
1.5 1 0
1.6 1 0
1.7 1 0
1.8 1 0
1.9 1 0
-0.1 1.1 0
0 1.1 0
0.1 1.1 0
0.2 1.1 0
0.3 1.1 0
0.4 1.1 0
0.5 1.1 0
0.6 1.1 0
0.7 1.1 0
0.8 1.1 0
0.9 1.1 0
1 1.1 0
1.1 1.1 0
1.2 1.1 0
1.3 1.1 0
1.4 1.1 0
1.5 1.1 0
1.6 1.1 0
1.7 1.1 0
1.8 1.1 0
1.9 1.1 0
-0.1 1.2 0
0 1.2 0
0.1 1.2 0
0.2 1.2 0
0.3 1.2 0
0.4 1.2 0
0.5 1.2 0
0.6 1.2 0
0.7 1.2 0
0.8 1.2 0
0.9 1.2 0
1 1.2 0
1.1 1.2 0
1.2 1.2 0
1.3 1.2 0
1.4 1.2 0
1.5 1.2 0
1.6 1.2 0
1.7 1.2 0
1.8 1.2 0
1.9 1.2 0
-0.1 1.3 0
0 1.3 0
0.1 1.3 0
0.2 1.3 0
0.3 1.3 0
0.4 1.3 0
0.5 1.3 0
0.6 1.3 0
0.7 1.3 0
0.8 1.3 0
0.9 1.3 0
1 1.3 0
1.1 1.3 0
1.2 1.3 0
1.3 1.3 0
1.4 1.3 0
1.5 1.3 0
1.6 1.3 0
1.7 1.3 0
1.8 1.3 0
1.9 1.3 0
-0.1 1.4 0
0 1.4 0
0.1 1.4 0
0.2 1.4 0
0.3 1.4 0
0.4 1.4 0
0.5 1.4 0
0.6 1.4 0
0.7 1.4 0
0.8 1.4 0
0.9 1.4 0
1 1.4 0
1.1 1.4 0
1.2 1.4 0
1.3 1.4 0
1.4 1.4 0
1.5 1.4 0
1.6 1.4 0
1.7 1.4 0
1.8 1.4 0
1.9 1.4 0
-0.1 1.5 0
0 1.5 0
0.1 1.5 0
0.2 1.5 0
0.3 1.5 0
0.4 1.5 0
0.5 1.5 0
0.6 1.5 0
0.7 1.5 0
0.8 1.5 0
0.9 1.5 0
1 1.5 0
1.1 1.5 0
1.2 1.5 0
1.3 1.5 0
1.4 1.5 0
1.5 1.5 0
1.6 1.5 0
1.7 1.5 0
1.8 1.5 0
1.9 1.5 0
-0.1 1.6 0
0 1.6 0
0.1 1.6 0
0.2 1.6 0
0.3 1.6 0
0.4 1.6 0
0.5 1.6 0
0.6 1.6 0
0.7 1.6 0
0.8 1.6 0
0.9 1.6 0
1 1.6 0
1.1 1.6 0
1.2 1.6 0
1.3 1.6 0
1.4 1.6 0
1.5 1.6 0
1.6 1.6 0
1.7 1.6 0
1.8 1.6 0
1.9 1.6 0
-0.1 1.7 0
0 1.7 0
0.1 1.7 0
0.2 1.7 0
0.3 1.7 0
0.4 1.7 0
0.5 1.7 0
0.6 1.7 0
0.7 1.7 0
0.8 1.7 0
0.9 1.7 0
1 1.7 0
1.1 1.7 0
1.2 1.7 0
1.3 1.7 0
1.4 1.7 0
1.5 1.7 0
1.6 1.7 0
1.7 1.7 0
1.8 1.7 0
1.9 1.7 0
-0.1 1.8 0
0 1.8 0
0.1 1.8 0
0.2 1.8 0
0.3 1.8 0
0.4 1.8 0
0.5 1.8 0
0.6 1.8 0
0.7 1.8 0
0.8 1.8 0
0.9 1.8 0
1 1.8 0
1.1 1.8 0
1.2 1.8 0
1.3 1.8 0
1.4 1.8 0
1.5 1.8 0
1.6 1.8 0
1.7 1.8 0
1.8 1.8 0
1.9 1.8 0
-0.1 1.9 0
0 1.9 0
0.1 1.9 0
0.2 1.9 0
0.3 1.9 0
0.4 1.9 0
0.5 1.9 0
0.6 1.9 0
0.7 1.9 0
0.8 1.9 0
0.9 1.9 0
1 1.9 0
1.1 1.9 0
1.2 1.9 0
1.3 1.9 0
1.4 1.9 0
1.5 1.9 0
1.6 1.9 0
1.7 1.9 0
1.8 1.9 0
[...]
CELL_DATA 4000
VECTORS velocity double 
-2.49746e-05 0.000296659 -0.000271684
-2.7542e-05 0.00034843 -0.000309232
-2.54345e-05 0.000355531 -0.000318719
-1.83615e-05 0.000357469 -0.000323979
-6.80473e-06 0.000358302 -0.000326866
7.91919e-06 0.000358908 -0.000328347
2.42896e-05 0.000359506 -0.000329042
4.09593e-05 0.000360149 -0.000329227
5.67349e-05 0.000360874 -0.000328939
7.0443e-05 0.000361653 -0.000328138
8.09028e-05 0.000362376 -0.000326768
8.7054e-05 0.000362985 -0.000324686
8.79139e-05 0.000363368 -0.000321809
8.25926e-05 0.000363315 -0.000318212
7.06777e-05 0.000362582 -0.000313988
5.2351e-05 0.000360976 -0.000309295
2.84545e-05 0.000358235 -0.00030423
5.85355e-07 0.000354149 -0.000298935
-2.88904e-05 0.000347042 -0.000292021
-1.44452e-05 0.000305001 -0.00025553
-1.19759e-05 0.00084407 -0.000338041
-1.36545e-05 0.000993917 -0.000395088
-1.36932e-05 0.00101419 -0.00040901
-8.76625e-06 0.00101959 -0.000416147
1.65625e-06 0.0010216 -0.000419914
1.64747e-05 0.00102272 -0.000421795
3.41157e-05 0.00102371 -0.000422646
5.30794e-05 0.00102487 -0.000422789
7.18873e-05 0.00102627 -0.000422302
8.89634e-05 0.00102783 -0.000421176
0.000102793 0.00102937 -0.000419284
0.00011189 0.00103071 -0.000416457
0.000114715 0.00103148 -0.000412639
0.000109846 0.00103118 -0.000407961
9.64382e-05 0.00102927 -0.000402435
7.42446e-05 0.00102513 -0.000396189
4.39474e-05 0.00101812 -0.00038944
7.14947e-06 0.00100731 -0.000382521
-3.15749e-05 0.000986315 -0.000373211
-1.57874e-05 0.000849743 -0.000322635
3.83532e-06 0.00155627 -0.000402062
8.36757e-06 0.00185752 -0.000470516
9.06339e-06 0.00189796 -0.000487306
1.28333e-05 0.00190835 -0.000495997
2.17264e-05 0.00191198 -0.000500628
3.51779e-05 0.00191366 -0.00050297
5.18319e-05 0.00191498 -0.000504015
7.02042e-05 0.0019165 -0.000504176
8.86858e-05 0.00191837 -0.000503584
0.000105592 0.00192049 -0.000502212
0.00011925 0.00192265 -0.000499897
0.000127888 0.00192444 -0.000496488
0.000129643 0.00192528 -0.000491936
0.000122805 0.00192432 -0.000486281
0.000106135 0.00192063 -0.000479536
7.91053e-05 0.00191312 -0.00047194
4.20391e-05 0.0019008 -0.000463768
-3.35722e-06 0.00188159 -0.000455335
-5.03646e-05 0.0018403 -0.000444706
-2.51823e-05 0.00155687 -0.000385845
2.18261e-05 0.0024125 -0.000482186
3.49746e-05 0.00292241 -0.000562716
3.7497e-05 0.00299129 -0.000582132
4.03851e-05 0.00300842 -0.000592421
4.76595e-05 0.00301428 -0.000598
5.95237e-05 0.00301674 -0.000600882
7.48786e-05 0.00301837 -0.000602211
9.22555e-05 0.0030201 -0.000602474
0.000109981 0.00302223 -0.000601837
0.000126238 0.00302467 -0.00060026
0.000139103 0.00302711 -0.000597575
0.000146558 0.00302898 -0.000593621
0.000146322 0.00302941 -0.000588313
0.000136349 0.00302729 -0.000581531
0.000114968 0.00302121 -0.000573438
8.14417e-05 0.00300955 -0.000564329
3.56479e-05 0.00299083 -0.000554723
-2.02429e-05 0.00296175 -0.000544915
-7.57378e-05 0.00289292 -0.000533134
-3.78689e-05 0.00240699 -0.000464603
4.20452e-05 0.00341311 -0.000574754
6.5868e-05 0.00419303 -0.000668434
7.11126e-05 0.0043002 -0.000690253
7.32232e-05 0.00432611 -0.000702105
7.85961e-05 0.00433489 -0.000708698
8.84327e-05 0.00433835 -0.000712202
0.000102001 0.0043403 -0.00071389
0.000117931 0.00434217 -0.000714313
0.000134457 0.00434439 -0.000713691
0.000149613 0.00434688 -0.000711976
0.000161229 0.00434925 -0.000709026
0.000166948 0.00435081 -0.000704537
0.000164154 0.00435043 -0.000698376
0.000150265 0.00434661 -0.000690545
0.000123126 0.0043375 -0.000681174
8.17263e-05 0.00432114 -0.000670434
2.58826e-05 0.00429525 -0.000659166
-4.15763e-05 0.0042546 -0.000648074
-0.000105179 0.00414941 -0.000635316
-5.25895e-05 0.00340098 -0.000555675
6.47585e-05 0.00456441 -0.000676019
0.000101402 0.00568002 -0.000783471
0.000110265 0.00583683 -0.000807365
0.000111639 0.0058738 -0.000820697
0.000114706 0.00588617 -0.000828364
0.000121957 0.00589089 -0.00083255
0.000133172 0.00589329 -0.00083461
0.000147064 0.00589531 -0.000835232
0.000161785 0.0058975 -0.00083472
0.000175233 0.00589984 -0.000832984
0.000185046 0.00590195 -0.000829774
0.000188461 0.00590296 -0.000824839
0.000182417 0.00590148 -0.000817973
0.000163829 0.00589567 -0.000809006
0.000130132 0.00588319 -0.000798295
7.97314e-05 0.00586148 -0.00078605
1.252e-05 0.00582753 -0.000773217
-6.75768e-05 0.00577329 -0.00076087
-0.00013905 0.0056213 -0.000747164
-6.95248e-05 0.00454574 -0.000655454
9.02284e-05 0.00587192 -0.000782438
0.000141937 0.00739302 -0.000903741
0.00015533 0.00761218 -0.000929257
0.000155938 0.00766266 -0.000943934
0.000156279 0.00767928 -0.000952626
0.000160406 0.00768557 -0.000957437
0.000168649 0.00768856 -0.000959874
0.000179806 0.00769074 -0.000960787
0.000192056 0.00769288 -0.000960478
0.000203206 0.00769509 -0.000958758
0.000210611 0.00769697 -0.000955413
0.000211145 0.00769739 -0.000950106
0.000201261 0.0076948 -0.000942703
0.000177272 0.00768695 -0.000932799
0.000136014 0.00767087 -0.000920709
7.53944e-05 0.00764341 -0.000906945
-4.53951e-06 0.0076007 -0.00089253
-9.83255e-05 0.00753059 -0.000879066
-0.000177694 0.00731947 -0.000864901
-8.8847e-05 0.00584752 -0.000760662
0.000118508 0.00733726 -0.000890559
0.00018751 0.00933741 -0.00102525
0.000206281 0.00963269 -0.00105175
0.000206088 0.00969907 -0.00106749
0.000203312 0.00972047 -0.00107704
0.000203752 0.00972847 -0.00108241
0.000208366 0.00973208 -0.00108527
0.000216135 0.00973444 -0.00108655
0.00022535 0.00973667 -0.00108649
0.000233719 0.00973894 -0.0010849
0.000238189 0.00974076 -0.00108168
0.00023538 0.009741 -0.0010762
0.000221159 0.0097377 -0.00106834
0.000191084 0.00972821 -0.00105777
0.000141377 0.00970896 -0.00104455
6.94048e-05 0.00967587 -0.00102938
-2.46741e-05 0.00962393 -0.00101356
-0.000133619 0.00953532 -0.000999285
-0.00022109 0.00925124 -0.000985066
-0.000110545 0.00730928 -0.000867811
0.000149399 0.00895738 -0.000997289
0.000237626 0.0115131 -0.00114449
0.000262383 0.0118988 -0.00117118
0.00026127 0.0119832 -0.00118752
0.000254937 0.0120095 -0.00119772
0.000251131 0.012019 -0.00120359
0.000251531 0.0120232 -0.00120689
0.000255492 0.0120258 -0.00120855
0.000261322 0.0120284 -0.00120884
0.000266557 0.0120311 -0.00120758
0.000267977 0.0120333 -0.00120464
0.000261644 0.0120341 -0.00119937
0.000242899 0.0120312 -0.00119132
0.000206468 0.0120212 -0.00118036
0.000147651 0.0119999 -0.00116645
6.32304e-05 0.0119622 -0.00115022
-4.66143e-05 0.0119012 -0.00113332
-0.000172333 0.0117917 -0.00111844
-0.000268255 0.0114196 -0.00110438
-0.000134127 0.00892932 -0.00097412
0.000182233 0.0107258 -0.00110091
0.000290857 0.0139155 -0.00125956
0.000321746 0.0144061 -0.00128547
0.000319376 0.0145098 -0.00130181
0.000308992 0.0145404 -0.00131232
0.000300489 0.014551 -0.00131855
0.000296423 0.0145555 -0.00132219
0.000296395 0.0145586 -0.00132421
0.000298775 0.0145617 -0.00132498
0.000300926 0.0145653 -0.00132439
0.000299617 0.0145689 -0.00132183
0.000290302 0.0145714 -0.00131715
0.000267451 0.0145704 -0.00130962
0.00022497 0.0145621 -0.00129876
0.000157056 0.0145412 -0.00128456
5.94764e-05 0.0145012 -0.00126774
-6.75465e-05 0.0144326 -0.00125018
-0.00021181 0.0143006 -0.0012352
-0.000317534 0.0138238 -0.00122155
-0.000158767 0.0107031 -0.00107829
0.000215656 0.0126368 -0.0012027
0.000344521 0.0165402 -0.00137206
0.000380869 0.0171491 -0.00139603
0.000376507 0.0172722 -0.00141159
0.000361605 0.0173055 -0.00142196
0.000348225 0.0173162 -0.00142825
0.000339709 0.0173206 -0.00143205
0.000335837 0.017324 -0.00143446
0.000335143 0.017328 -0.00143574
0.000334922 0.0173331 -0.00143605
0.000331802 0.0173393 -0.00143435
0.000320726 0.0173453 -0.00143054
0.00029539 0.0173487 -0.00142392
0.000248483 0.0173454 -0.00141384
0.000172642 0.0173292 -0.00140018
6.21285e-05 0.0172913 -0.00138356
-8.29081e-05 0.017219 -0.00136589
-0.000247865 0.0170636 -0.00135132
-0.000365727 0.016465 -0.00133881
-0.000182864 0.0126274 -0.00118175
0.000247464 0.0146939 -0.00130949
0.000394131 0.0193922 -0.00149012
0.00043376 0.0201306 -0.00151102
0.000426088 0.0202706 -0.00152489
0.000406207 0.0203035 -0.00153448
0.000388076 0.0203123 -0.00154043
0.000375594 0.0203158 -0.00154416
0.000368544 0.0203192 -0.00154704
0.000365813 0.0203243 -0.00154871
0.000364717 0.0203315 -0.00154967
0.000361579 0.0203413 -0.00154922
0.000351183 0.0203528 -0.00154682
0.000326456 0.0203641 -0.00154172
0.000278608 0.0203708 -0.00153319
0.000198067 0.0203655 -0.00152101
7.69939e-05 0.0203375 -0.00150561
-8.60984e-05 0.0202684 -0.00148886
-0.000274077 0.0200921 -0.0014753
-0.000407721 0.0193541 -0.00146406
-0.000203861 0.0147078 -0.00129161
0.000274038 0.0169263 -0.00143821
0.000432109 0.0225035 -0.00163387
0.000470382 0.0233781 -0.00165088
0.000457218 0.0235287 -0.00166202
0.000431991 0.0235559 -0.00167007
0.000409715 0.02356 -0.00167526
0.000394289 0.0235611 -0.00167865
0.000385711 0.0235636 -0.00168165
0.000382605 0.0235694 -0.00168404
0.000382754 0.0235792 -0.00168574
0.00038262 0.0235934 -0.00168653
0.000376967 0.0236125 -0.00168585
0.000358024 0.0236351 -0.00168286
0.000315408 0.0236577 -0.00167685
0.000236826 0.0236724 -0.00166724
0.000110849 0.023666 -0.0016542
-6.74815e-05 0.0236125 -0.00163968
-0.000280421 0.0234226 -0.00162822
-0.000435755 0.0225301 -0.00161797
-0.000217878 0.0169741 -0.00142495
0.000289178 0.0194173 -0.0016244
0.000445636 0.0259651 -0.00184548
0.00047421 0.0269747 -0.0018583
0.000452254 0.0271239 -0.00186551
0.000421572 0.0271376 -0.00187103
0.000396576 0.0271329 -0.0018749
0.00038019 0.0271298 -0.00187779
0.000372423 0.0271307 -0.00188024
0.000371767 0.0271366 -0.00188289
0.000376302 0.0271481 -0.00188547
0.000383264 0.0271668 -0.00188757
0.000387839 0.0271943 -0.00188871
0.000382239 0.0272313 -0.00188821
0.000354736 0.0272757 -0.00188539
0.000289901 0.027321 -0.0018795
0.00017047 0.0273521 -0.00187038
-1.50289e-05 0.0273346 -0.00185966
-0.000252112 0.027148 -0.00185133
-0.000437751 0.0260917 -0.00184176
-0.000218876 0.0195092 -0.00161681
0.000281802 0.0223605 -0.00193983
0.000412656 0.0299877 -0.00220963
0.000417748 0.031117 -0.00221888
0.000382574 0.0312446 -0.00222076
0.000347055 0.031234 -0.00222272
0.000322332 0.0312158 -0.00222414
0.000308716 0.031206 -0.00222608
0.00030521 0.0312038 -0.00222815
0.000310536 0.0312084 -0.00223069
0.000323517 0.0312203 -0.00223362
0.0003426 0.0312422 -0.00223661
0.000364212 0.0312772 -0.00223942
0.000381602 0.0313288 -0.00224153
0.000383107 0.0313987 -0.00224222
0.000350303 0.0314844 -0.0022409
0.000258763 0.031572 -0.00223727
8.50128e-05 0.0316202 -0.00223214
-0.000168159 0.0314704 -0.00222836
-0.000394694 0.0302553 -0.00221813
-0.000197347 0.0225014 -0.00193836
0.000230382 0.0261751 -0.00253384
0.000292966 0.0350255 -0.00290172
0.000253267 0.0362339 -0.00290977
0.000199926 0.0363083 -0.00290488
0.000162264 0.0362598 -0.00290251
0.000142908 0.0362236 -0.00290104
0.000137921 0.0362051 -0.00290095
0.000144429 0.036198 -0.00290195
0.000161065 0.0361992 -0.00290389
0.000187814 0.0362092 -0.0029066
0.00022469 0.036231 -0.00290993
0.000270651 0.0362696 -0.00291382
0.000322001 0.0363318 -0.00291799
0.000369486 0.0364251 -0.00292204
0.000394608 0.0365547 -0.00292556
0.000366271 0.0367157 -0.00292822
0.000243504 0.036867 -0.00293031
6.08993e-07 0.0368109 -0.00293307
-0.000274404 0.0354754 -0.00292029
-0.000137202 0.0263573 -0.00253757
8.8196e-05 0.0317724 -0.00373876
7.64008e-06 0.0420491 -0.00430806
-0.000106781 0.0432514 -0.00432053
-0.000181024 0.0432302 -0.00430762
-0.000212745 0.0431314 -0.00429902
-0.000216252 0.0430738 -0.00429398
-0.00020242 0.0430451 -0.00429141
-0.000176407 0.0430312 -0.00429056
-0.000139682 0.0430266 -0.0042911
-9.12547e-05 0.043031 -0.00429278
-2.91427e-05 0.0430478 -0.00429566
4.90865e-05 0.0430829 -0.00429971
0.000145045 0.0431461 -0.00430491
0.000256244 0.0432511 -0.00431134
0.000370749 0.0434146 -0.00431893
0.000457763 0.0436503 -0.00432767
0.000457956 0.0439364 -0.00433777
0.000295103 0.0440574 -0.00434847
-1.50002e-05 0.0427082 -0.00432943
-7.50008e-06 0.0319647 -0.0037454
-0.000257992 0.0411552 -0.00628685
-0.000609164 0.0531111 -0.00725591
-0.000828827 0.0541517 -0.00728267
-0.000912614 0.0539914 -0.00726299
-0.00091574 0.0538401 -0.00724765
-0.000879323 0.0537628 -0.00723784
-0.000823724 0.0537236 -0.00723186
-0.000756934 0.0537012 -0.00722839
-0.000680709 0.0536883 -0.0072268
-0.00059354 0.0536836 -0.00722679
-0.000491646 0.0536901 -0.00722833
-0.000368956 0.0537134 -0.00723152
-0.000217466 0.0537638 -0.00723669
-2.80858e-05 0.0538587 -0.00724414
0.000204338 0.0540252 -0.00725421
0.000468253 0.0543016 -0.00726726
0.000707171 0.0547119 -0.00728381
0.000784937 0.0550876 -0.00730145
0.000533994 0.0539473 -0.00726888
0.000266997 0.041301 -0.00629427
-0.00110518 0.0569905 -0.0099997
-0.00190023 0.0703 -0.0113443
-0.00219474 0.0709569 -0.0113927
-0.00220466 0.0706707 -0.011371
-0.00209483 0.0704943 -0.0113502
-0.00194257 0.0704101 -0.0113356
-0.0017783 0.0703652 -0.011326
-0.00161243 0.0703367 -0.0113198
-0.00144702 0.070317 -0.0113161
-0.00128 0.0703045 -0.0113144
-0.00110655 0.0703006 -0.0113147
-0.000918295 0.0703089 -0.0113172
-0.000701451 0.0703369 -0.0113223
-0.000434611 0.0703993 -0.0113307
-8.61389e-05 0.0705232 -0.011343
0.00038123 0.070758 -0.0113594
0.000982174 0.0711759 -0.0113789
0.00160468 0.0717404 -0.0113954
0.0017796 0.0711121 -0.0113447
0.0008898 0.0570578 -0.0100153
-0.00297071 0.0284952 0.0394632
-0.0039656 0.03515 0.0433595
-0.00387596 0.0354784 0.0433911
-0.00345116 0.0353354 0.0433924
-0.00298039 0.0352471 0.0434123
-0.00254889 0.035205 0.0434292
-0.00217349 0.0351826 0.0434404
-0.00185072 0.0351684 0.0434473
-0.0015712 0.0351585 0.0434513
-0.00132485 0.0351523 0.0434529
-0.00110154 0.0351503 0.0434521
-0.000889519 0.0351544 0.0434484
-0.000672845 0.0351685 0.043441
-0.000426149 0.0351996 0.0434281
-0.000103635 0.0352616 0.0434078
0.000382302 0.035379 0.0433788
0.00119493 0.0355879 0.043346
0.00255908 0.0358702 0.0433347
0.00417789 0.0355561 0.0432969
0.00208894 0.0285289 0.0394315
-3.21866e-05 0.000299422 -0.000625668
-4.39896e-05 0.000354165 -0.000741855
-4.71481e-05 0.000360025 -0.000768221
-4.20338e-05 0.00036111 -0.000781595
-3.00569e-05 0.000361544 -0.000789038
-1.32111e-05 0.000362008 -0.000793197
6.61023e-06 0.000362602 -0.000795518
2.78566e-05 0.000363381 -0.000796581
4.91132e-05 0.000364351 -0.000796481
6.89639e-05 0.000365447 -0.000795089
8.60434e-05 0.000366609 -0.000792128
9.89882e-05 0.000367781 -0.000787248
0.00010632 0.000368801 -0.000780358
0.000106706 0.000369377 -0.00077152
9.92637e-05 0.000369325 -0.000760892
8.38491e-05 0.000368473 -0.000748721
6.09671e-05 0.000366428 -0.000735598
3.2305e-05 0.0003627 -0.000721864
-1.1105e-07 0.00035521 -0.000703495
-5.5525e-08 0.0003062 -0.000601301
-2.37591e-05 0.000874507 -0.000828144
-3.72709e-05 0.00104673 -0.00100697
-4.42397e-05 0.00106698 -0.00104704
-4.23776e-05 0.00107089 -0.00106583
-3.21787e-05 0.00107195 -0.00107581
-1.5383e-05 0.0010726 -0.00108118
6.18034e-06 0.00107351 -0.001084
3.08121e-05 0.00107488 -0.00108506
5.67758e-05 0.00107672 -0.0010846
8.2295e-05 0.00107895 -0.00108245
0.000105585 0.00108143 -0.0010782
0.000124683 0.00108393 -0.00107146
0.00013734 0.00108601 -0.00106217
0.000141588 0.00108716 -0.00105022
0.000135904 0.00108682 -0.0010357
0.000119315 0.00108418 -0.00101906
9.16989e-05 0.00107837 -0.00100098
5.47154e-05 0.00106806 -0.000981548
1.15505e-05 0.00104414 -0.000953679
5.77527e-06 0.000880055 -0.000800501
-8.70185e-06 0.00165702 -0.00101638
-1.63541e-05 0.00202102 -0.001237
-2.23254e-05 0.00206629 -0.00128711
-2.09995e-05 0.00207524 -0.00131043
-1.15879e-05 0.0020775 -0.0013227
4.63982e-06 0.00207842 -0.0013292
2.60186e-05 0.0020795 -0.00133246
5.08569e-05 0.00208122 -0.00133358
7.73593e-05 0.00208366 -0.00133285
0.000103686 0.00208676 -0.00133007
0.00012785 0.00209027 -0.00132481
0.000147562 0.00209375 -0.00131666
0.000160308 0.00209654 -0.00130534
0.000163714 0.00209784 -0.00129067
0.000155616 0.00209646 -0.00127279
0.000134618 0.00209101 -0.00125219
0.000100122 0.0020799 -0.00122964
5.30233e-05 0.00206025 -0.00120542
-1.45722e-06 0.00201016 -0.00117091
-7.28609e-07 0.0016589 -0.000984226
9.88674e-06 0.00263562 -0.00124785
1.13026e-05 0.00327548 -0.00151454
7.98691e-06 0.00335906 -0.00157479
9.60599e-06 0.00337584 -0.00160295
1.86798e-05 0.00338015 -0.00161779
3.45852e-05 0.00338156 -0.00162563
5.58822e-05 0.00338275 -0.00162953
8.08812e-05 0.00338463 -0.00163086
0.000107749 0.00338742 -0.00162999
0.000134504 0.00339103 -0.00162671
0.000158894 0.0033951 -0.00162052
0.000178386 0.00339911 -0.00161088
0.000190129 0.00340213 -0.00159738
0.000191115 0.00340281 -0.00157971
0.000178599 0.00339941 -0.00155819
0.00015062 0.00339005 -0.00153322
0.000106092 0.00337223 -0.00150579
4.56873e-05 0.00334059 -0.00147634
-2.14923e-05 0.00325246 -0.00143509
-1.07461e-05 0.0026324 -0.00121037
3.1599e-05 0.00381844 -0.00151464
4.47776e-05 0.00482857 -0.00183258
4.537e-05 0.00496693 -0.00190325
4.75961e-05 0.00499494 -0.00193644
5.62068e-05 0.00500232 -0.00195407
7.14779e-05 0.00500452 -0.00196344
9.23035e-05 0.00500589 -0.00196813
0.000117058 0.00500783 -0.00196979
0.000143835 0.0050107 -0.00196892
0.000170474 0.00501443 -0.00196525
0.000194614 0.0050187 -0.00195822
0.000213344 0.00502272 -0.00194712
0.000223243 0.00502526 -0.00193145
0.000220749 0.00502468 -0.00191071
0.000202617 0.00501845 -0.00188531
0.000166086 0.00500405 -0.00185575
0.000109526 0.00497798 -0.00182318
3.39056e-05 0.0049313 -0.00178838
-4.62677e-05 0.00479033 -0.00173998
-2.31339e-05 0.00380915 -0.00147186
5.67815e-05 0.00521913 -0.0018076
8.45512e-05 0.00670449 -0.00218072
9.02757e-05 0.00691733 -0.0022618
9.3277e-05 0.00696063 -0.00230008
0.000101101 0.00697226 -0.00232063
0.00011524 0.00697575 -0.00233159
0.000134975 0.00697748 -0.00233713
0.000158719 0.00697945 -0.00233926
0.000184578 0.0069822 -0.00233855
0.00021037 0.00698586 -0.00233465
0.000233429 0.00698998 -0.00232691
0.000250496 0.00699366 -0.00231447
0.000257775 0.0069952 -0.00229669
0.000250796 0.00699268 -0.00227308
0.000225786 0.00698303 -0.00224363
0.000179151 0.00696258 -0.00220921
0.000108854 0.00692674 -0.00217123
1.64458e-05 0.0068612 -0.00213103
-7.71528e-05 0.00664879 -0.00207559
-3.85764e-05 0.00520324 -0.00175991
8.58793e-05 0.0068501 -0.0021178
0.000131267 0.00892598 -0.00254846
0.000143387 0.0092362 -0.00263957
0.00014735 0.00929952 -0.00268275
0.000154088 0.00931675 -0.0027061
0.000166507 0.00932208 -0.00271859
0.000184321 0.00932434 -0.00272507
0.000206127 0.00932634 -0.00272783
0.00023019 0.00932898 -0.00272741
0.000254186 0.00933248 -0.00272351
0.000275255 0.00933625 -0.00271532
0.000289655 0.00933933 -0.00270199
0.000293299 0.00933979 -0.00268224
0.000280955 0.0093349 -0.00265577
0.000247772 0.0093211 -0.00262253
0.000189494 0.00929373 -0.00258333
0.000103529 0.00924648 -0.00253994
-7.69619e-06 0.00915746 -0.00249434
-0.000115342 0.0088516 -0.00243199
-5.76709e-05 0.00682808 -0.00206581
0.000119125 0.00871894 -0.00243596
0.000185279 0.0115103 -0.00292484
0.000205097 0.0119437 -0.00302509
0.000210231 0.0120322 -0.00307261
0.000215525 0.0120564 -0.00309843
0.000225498 0.0120639 -0.00311239
0.000240513 0.0120668 -0.00311984
0.000259498 0.0120689 -0.00312336
0.000280836 0.0120716 -0.00312347
0.000302046 0.012075 -0.00311995
0.000320209 0.0120785 -0.00311175
0.000331188 0.0120811 -0.00309803
0.00033019 0.0120806 -0.00307713
0.000311358 0.0120735 -0.00304842
0.000268801 0.0120555 -0.00301177
0.000197289 0.0120206 -0.00296806
9.36136e-05 0.0119605 -0.00291948
-3.86214e-05 0.0118428 -0.00286879
-0.000160732 0.0114183 -0.00279966
-8.03659e-05 0.00869252 -0.00238049
0.000156413 0.0108265 -0.00275306
0.00024628 0.0144666 -0.00329929
0.000274951 0.0150515 -0.0034072
0.000281325 0.0151706 -0.00345811
0.000284673 0.0152025 -0.00348589
0.000291457 0.0152125 -0.0035011
0.000302874 0.0152162 -0.00350949
0.000318251 0.0152187 -0.00351379
0.000336072 0.0152215 -0.0035147
0.000353744 0.015225 -0.00351212
0.000368273 0.0152289 -0.00350458
0.000375252 0.0152316 -0.00349105
0.000368997 0.0152307 -0.00346988
0.000342863 0.0152222 -0.00343994
0.000289911 0.0152007 -0.0034008