# vtk DataFile Version 2.0 
Visualization 
ASCII 
DATASET STRUCTURED_GRID 
DIMENSIONS 21 21 11
POINTS 4851 float
-0.1 -0.1 0.9
0 -0.1 0.9
0.1 -0.1 0.9
0.2 -0.1 0.9
0.3 -0.1 0.9
0.4 -0.1 0.9
0.5 -0.1 0.9
0.6 -0.1 0.9
0.7 -0.1 0.9
0.8 -0.1 0.9
0.9 -0.1 0.9
1 -0.1 0.9
1.1 -0.1 0.9
1.2 -0.1 0.9
1.3 -0.1 0.9
1.4 -0.1 0.9
1.5 -0.1 0.9
1.6 -0.1 0.9
1.7 -0.1 0.9
1.8 -0.1 0.9
1.9 -0.1 0.9
-0.1 0 0.9
0 0 0.9
0.1 0 0.9
0.2 0 0.9
0.3 0 0.9
0.4 0 0.9
0.5 0 0.9
0.6 0 0.9
0.7 0 0.9
0.8 0 0.9
0.9 0 0.9
1 0 0.9
1.1 0 0.9
1.2 0 0.9
1.3 0 0.9
1.4 0 0.9
1.5 0 0.9
1.6 0 0.9
1.7 0 0.9
1.8 0 0.9
1.9 0 0.9
-0.1 0.1 0.9
0 0.1 0.9
0.1 0.1 0.9
0.2 0.1 0.9
0.3 0.1 0.9
0.4 0.1 0.9
0.5 0.1 0.9
0.6 0.1 0.9
0.7 0.1 0.9
0.8 0.1 0.9
0.9 0.1 0.9
1 0.1 0.9
1.1 0.1 0.9
1.2 0.1 0.9
1.3 0.1 0.9
1.4 0.1 0.9
1.5 0.1 0.9
1.6 0.1 0.9
1.7 0.1 0.9
1.8 0.1 0.9
1.9 0.1 0.9
-0.1 0.2 0.9
0 0.2 0.9
0.1 0.2 0.9
0.2 0.2 0.9
0.3 0.2 0.9
0.4 0.2 0.9
0.5 0.2 0.9
0.6 0.2 0.9
0.7 0.2 0.9
0.8 0.2 0.9
0.9 0.2 0.9
1 0.2 0.9
1.1 0.2 0.9
1.2 0.2 0.9
1.3 0.2 0.9
1.4 0.2 0.9
1.5 0.2 0.9
1.6 0.2 0.9
1.7 0.2 0.9
1.8 0.2 0.9
1.9 0.2 0.9
-0.1 0.3 0.9
0 0.3 0.9
0.1 0.3 0.9
0.2 0.3 0.9
0.3 0.3 0.9
0.4 0.3 0.9
0.5 0.3 0.9
0.6 0.3 0.9
0.7 0.3 0.9
0.8 0.3 0.9
0.9 0.3 0.9
1 0.3 0.9
1.1 0.3 0.9
1.2 0.3 0.9
1.3 0.3 0.9
1.4 0.3 0.9
1.5 0.3 0.9
1.6 0.3 0.9
1.7 0.3 0.9
1.8 0.3 0.9
1.9 0.3 0.9
-0.1 0.4 0.9
0 0.4 0.9
0.1 0.4 0.9
0.2 0.4 0.9
0.3 0.4 0.9
0.4 0.4 0.9
0.5 0.4 0.9
0.6 0.4 0.9
0.7 0.4 0.9
0.8 0.4 0.9
0.9 0.4 0.9
1 0.4 0.9
1.1 0.4 0.9
1.2 0.4 0.9
1.3 0.4 0.9
1.4 0.4 0.9
1.5 0.4 0.9
1.6 0.4 0.9
1.7 0.4 0.9
1.8 0.4 0.9
1.9 0.4 0.9
-0.1 0.5 0.9
0 0.5 0.9
0.1 0.5 0.9
0.2 0.5 0.9
0.3 0.5 0.9
0.4 0.5 0.9
0.5 0.5 0.9
0.6 0.5 0.9
0.7 0.5 0.9
0.8 0.5 0.9
0.9 0.5 0.9
1 0.5 0.9
1.1 0.5 0.9
1.2 0.5 0.9
1.3 0.5 0.9
1.4 0.5 0.9
1.5 0.5 0.9
1.6 0.5 0.9
1.7 0.5 0.9
1.8 0.5 0.9
1.9 0.5 0.9
-0.1 0.6 0.9
0 0.6 0.9
0.1 0.6 0.9
0.2 0.6 0.9
0.3 0.6 0.9
0.4 0.6 0.9
0.5 0.6 0.9
0.6 0.6 0.9
0.7 0.6 0.9
0.8 0.6 0.9
0.9 0.6 0.9
1 0.6 0.9
1.1 0.6 0.9
1.2 0.6 0.9
1.3 0.6 0.9
1.4 0.6 0.9
1.5 0.6 0.9
1.6 0.6 0.9
1.7 0.6 0.9
1.8 0.6 0.9
1.9 0.6 0.9
-0.1 0.7 0.9
0 0.7 0.9
0.1 0.7 0.9
0.2 0.7 0.9
0.3 0.7 0.9
0.4 0.7 0.9
0.5 0.7 0.9
0.6 0.7 0.9
0.7 0.7 0.9
0.8 0.7 0.9
0.9 0.7 0.9
1 0.7 0.9
1.1 0.7 0.9
1.2 0.7 0.9
1.3 0.7 0.9
1.4 0.7 0.9
1.5 0.7 0.9
1.6 0.7 0.9
1.7 0.7 0.9
1.8 0.7 0.9
1.9 0.7 0.9
-0.1 0.8 0.9
0 0.8 0.9
0.1 0.8 0.9
0.2 0.8 0.9
0.3 0.8 0.9
0.4 0.8 0.9
0.5 0.8 0.9
0.6 0.8 0.9
0.7 0.8 0.9
0.8 0.8 0.9
0.9 0.8 0.9
1 0.8 0.9
1.1 0.8 0.9
1.2 0.8 0.9
1.3 0.8 0.9
1.4 0.8 0.9
1.5 0.8 0.9
1.6 0.8 0.9
1.7 0.8 0.9
1.8 0.8 0.9
1.9 0.8 0.9
-0.1 0.9 0.9
0 0.9 0.9
0.1 0.9 0.9
0.2 0.9 0.9
0.3 0.9 0.9
0.4 0.9 0.9
0.5 0.9 0.9
0.6 0.9 0.9
0.7 0.9 0.9
0.8 0.9 0.9
0.9 0.9 0.9
1 0.9 0.9
1.1 0.9 0.9
1.2 0.9 0.9
1.3 0.9 0.9
1.4 0.9 0.9
1.5 0.9 0.9
1.6 0.9 0.9
1.7 0.9 0.9
1.8 0.9 0.9
1.9 0.9 0.9
-0.1 1 0.9
0 1 0.9
0.1 1 0.9
0.2 1 0.9
0.3 1 0.9
0.4 1 0.9
0.5 1 0.9
0.6 1 0.9
0.7 1 0.9
0.8 1 0.9
0.9 1 0.9
1 1 0.9
1.1 1 0.9
1.2 1 0.9
1.3 1 0.9
1.4 1 0.9
1.5 1 0.9
1.6 1 0.9
1.7 1 0.9
1.8 1 0.9
1.9 1 0.9
-0.1 1.1 0.9
0 1.1 0.9
0.1 1.1 0.9
0.2 1.1 0.9
0.3 1.1 0.9
0.4 1.1 0.9
0.5 1.1 0.9
0.6 1.1 0.9
0.7 1.1 0.9
0.8 1.1 0.9
0.9 1.1 0.9
1 1.1 0.9
1.1 1.1 0.9
1.2 1.1 0.9
1.3 1.1 0.9
1.4 1.1 0.9
1.5 1.1 0.9
1.6 1.1 0.9
1.7 1.1 0.9
1.8 1.1 0.9
1.9 1.1 0.9
-0.1 1.2 0.9
0 1.2 0.9
0.1 1.2 0.9
0.2 1.2 0.9
0.3 1.2 0.9
0.4 1.2 0.9
0.5 1.2 0.9
0.6 1.2 0.9
0.7 1.2 0.9
0.8 1.2 0.9
0.9 1.2 0.9
1 1.2 0.9
1.1 1.2 0.9
1.2 1.2 0.9
1.3 1.2 0.9
1.4 1.2 0.9
1.5 1.2 0.9
1.6 1.2 0.9
1.7 1.2 0.9
1.8 1.2 0.9
1.9 1.2 0.9
-0.1 1.3 0.9
0 1.3 0.9
0.1 1.3 0.9
0.2 1.3 0.9
0.3 1.3 0.9
0.4 1.3 0.9
0.5 1.3 0.9
0.6 1.3 0.9
0.7 1.3 0.9
0.8 1.3 0.9
0.9 1.3 0.9
1 1.3 0.9
1.1 1.3 0.9
1.2 1.3 0.9
1.3 1.3 0.9
1.4 1.3 0.9
1.5 1.3 0.9
1.6 1.3 0.9
1.7 1.3 0.9
1.8 1.3 0.9
1.9 1.3 0.9
-0.1 1.4 0.9
0 1.4 0.9
0.1 1.4 0.9
0.2 1.4 0.9
0.3 1.4 0.9
0.4 1.4 0.9
0.5 1.4 0.9
0.6 1.4 0.9
0.7 1.4 0.9
0.8 1.4 0.9
0.9 1.4 0.9
1 1.4 0.9
1.1 1.4 0.9
1.2 1.4 0.9
1.3 1.4 0.9
1.4 1.4 0.9
1.5 1.4 0.9
1.6 1.4 0.9
1.7 1.4 0.9
1.8 1.4 0.9
1.9 1.4 0.9
-0.1 1.5 0.9
0 1.5 0.9
0.1 1.5 0.9
0.2 1.5 0.9
0.3 1.5 0.9
0.4 1.5 0.9
0.5 1.5 0.9
0.6 1.5 0.9
0.7 1.5 0.9
0.8 1.5 0.9
0.9 1.5 0.9
1 1.5 0.9
1.1 1.5 0.9
1.2 1.5 0.9
1.3 1.5 0.9
1.4 1.5 0.9
1.5 1.5 0.9
1.6 1.5 0.9
1.7 1.5 0.9
1.8 1.5 0.9
1.9 1.5 0.9
-0.1 1.6 0.9
0 1.6 0.9
0.1 1.6 0.9
0.2 1.6 0.9
0.3 1.6 0.9
0.4 1.6 0.9
0.5 1.6 0.9
0.6 1.6 0.9
0.7 1.6 0.9
0.8 1.6 0.9
0.9 1.6 0.9
1 1.6 0.9
1.1 1.6 0.9
1.2 1.6 0.9
1.3 1.6 0.9
1.4 1.6 0.9
1.5 1.6 0.9
1.6 1.6 0.9
1.7 1.6 0.9
1.8 1.6 0.9
1.9 1.6 0.9
-0.1 1.7 0.9
0 1.7 0.9
0.1 1.7 0.9
0.2 1.7 0.9
0.3 1.7 0.9
0.4 1.7 0.9
0.5 1.7 0.9
0.6 1.7 0.9
0.7 1.7 0.9
0.8 1.7 0.9
0.9 1.7 0.9
1 1.7 0.9
1.1 1.7 0.9
1.2 1.7 0.9
1.3 1.7 0.9
1.4 1.7 0.9
1.5 1.7 0.9
1.6 1.7 0.9
1.7 1.7 0.9
1.8 1.7 0.9
1.9 1.7 0.9
-0.1 1.8 0.9
0 1.8 0.9
0.1 1.8 0.9
0.2 1.8 0.9
0.3 1.8 0.9
0.4 1.8 0.9
0.5 1.8 0.9
0.6 1.8 0.9
0.7 1.8 0.9
0.8 1.8 0.9
0.9 1.8 0.9
1 1.8 0.9
1.1 1.8 0.9
1.2 1.8 0.9
1.3 1.8 0.9
1.4 1.8 0.9
1.5 1.8 0.9
1.6 1.8 0.9
1.7 1.8 0.9
1.8 1.8 0.9
1.9 1.8 0.9
-0.1 1.9 0.9
0 1.9 0.9
0.1 1.9 0.9
0.2 1.9 0.9
0.3 1.9 0.9
0.4 1.9 0.9
0.5 1.9 0.9
0.6 1.9 0.9
0.7 1.9 0.9
0.8 1.9 0.9
0.9 1.9 0.9
1 1.9 0.9
1.1 1.9 0.9
1.2 1.9 0.9
1.3 1.9 0.9
1.4 1.9 0.9
1.5 1.9 0.9
1.6 1.9 0.9
1.7 1.9 0.9
1.8 1.9 0.9
1.9 1.9 0.9
-0.1 -0.1 1
0 -0.1 1
0.1 -0.1 1
0.2 -0.1 1
0.3 -0.1 1
0.4 -0.1 1
0.5 -0.1 1
0.6 -0.1 1
0.7 -0.1 1
0.8 -0.1 1
0.9 -0.1 1
1 -0.1 1
1.1 -0.1 1
1.2 -0.1 1
1.3 -0.1 1
1.4 -0.1 1
1.5 -0.1 1
1.6 -0.1 1
1.7 -0.1 1
1.8 -0.1 1
1.9 -0.1 1
-0.1 0 1
0 0 1
0.1 0 1
0.2 0 1
0.3 0 1
0.4 0 1
0.5 0 1
0.6 0 1
0.7 0 1
0.8 0 1
0.9 0 1
1 0 1
1.1 0 1
1.2 0 1
1.3 0 1
1.4 0 1
1.5 0 1
1.6 0 1
1.7 0 1
1.8 0 1
1.9 0 1
-0.1 0.1 1
0 0.1 1
0.1 0.1 1
0.2 0.1 1
0.3 0.1 1
0.4 0.1 1
0.5 0.1 1
0.6 0.1 1
0.7 0.1 1
0.8 0.1 1
0.9 0.1 1
1 0.1 1
1.1 0.1 1
1.2 0.1 1
1.3 0.1 1
1.4 0.1 1
1.5 0.1 1
1.6 0.1 1
1.7 0.1 1
1.8 0.1 1
1.9 0.1 1
-0.1 0.2 1
0 0.2 1
0.1 0.2 1
0.2 0.2 1
0.3 0.2 1
0.4 0.2 1
0.5 0.2 1
0.6 0.2 1
0.7 0.2 1
0.8 0.2 1
0.9 0.2 1
1 0.2 1
1.1 0.2 1
1.2 0.2 1
1.3 0.2 1
1.4 0.2 1
1.5 0.2 1
1.6 0.2 1
1.7 0.2 1
1.8 0.2 1
1.9 0.2 1
-0.1 0.3 1
0 0.3 1
0.1 0.3 1
0.2 0.3 1
0.3 0.3 1
0.4 0.3 1
0.5 0.3 1
0.6 0.3 1
0.7 0.3 1
0.8 0.3 1
0.9 0.3 1
1 0.3 1
1.1 0.3 1
1.2 0.3 1
1.3 0.3 1
1.4 0.3 1
1.5 0.3 1
1.6 0.3 1
1.7 0.3 1
1.8 0.3 1
1.9 0.3 1
-0.1 0.4 1
0 0.4 1
0.1 0.4 1
0.2 0.4 1
0.3 0.4 1
0.4 0.4 1
0.5 0.4 1
0.6 0.4 1
0.7 0.4 1
0.8 0.4 1
0.9 0.4 1
1 0.4 1
1.1 0.4 1
1.2 0.4 1
1.3 0.4 1
1.4 0.4 1
1.5 0.4 1
1.6 0.4 1
1.7 0.4 1
1.8 0.4 1
1.9 0.4 1
-0.1 0.5 1
0 0.5 1
0.1 0.5 1
0.2 0.5 1
0.3 0.5 1
0.4 0.5 1
0.5 0.5 1
0.6 0.5 1
0.7 0.5 1
0.8 0.5 1
0.9 0.5 1
1 0.5 1
1.1 0.5 1
1.2 0.5 1
1.3 0.5 1
1.4 0.5 1
1.5 0.5 1
1.6 0.5 1
1.7 0.5 1
1.8 0.5 1
1.9 0.5 1
-0.1 0.6 1
0 0.6 1
0.1 0.6 1
0.2 0.6 1
0.3 0.6 1
0.4 0.6 1
0.5 0.6 1
0.6 0.6 1
0.7 0.6 1
0.8 0.6 1
0.9 0.6 1
1 0.6 1
1.1 0.6 1
1.2 0.6 1
1.3 0.6 1
1.4 0.6 1
1.5 0.6 1
1.6 0.6 1
1.7 0.6 1
1.8 0.6 1
1.9 0.6 1
-0.1 0.7 1
0 0.7 1
0.1 0.7 1
0.2 0.7 1
0.3 0.7 1
0.4 0.7 1
0.5 0.7 1
0.6 0.7 1
0.7 0.7 1
0.8 0.7 1
0.9 0.7 1
1 0.7 1
1.1 0.7 1
1.2 0.7 1
1.3 0.7 1
1.4 0.7 1
1.5 0.7 1
1.6 0.7 1
1.7 0.7 1
1.8 0.7 1
1.9 0.7 1
-0.1 0.8 1
0 0.8 1
0.1 0.8 1
0.2 0.8 1
0.3 0.8 1
0.4 0.8 1
0.5 0.8 1
0.6 0.8 1
0.7 0.8 1
0.8 0.8 1
0.9 0.8 1
1 0.8 1
1.1 0.8 1
1.2 0.8 1
1.3 0.8 1
1.4 0.8 1
1.5 0.8 1
1.6 0.8 1
1.7 0.8 1
1.8 0.8 1
1.9 0.8 1
-0.1 0.9 1
0 0.9 1
0.1 0.9 1
0.2 0.9 1
0.3 0.9 1
0.4 0.9 1
0.5 0.9 1
0.6 0.9 1
0.7 0.9 1
0.8 0.9 1
0.9 0.9 1
1 0.9 1
1.1 0.9 1
1.2 0.9 1
1.3 0.9 1
1.4 0.9 1
1.5 0.9 1
1.6 0.9 1
1.7 0.9 1
1.8 0.9 1
1.9 0.9 1
-0.1 1 1
0 1 1
0.1 1 1
0.2 1 1
0.3 1 1
0.4 1 1
0.5 1 1
0.6 1 1
0.7 1 1
0.8 1 1
0.9 1 1
1 1 1
1.1 1 1
1.2 1 1
1.3 1 1
1.4 1 1
1.5 1 1
1.6 1 1
1.7 1 1
1.8 1 1
1.9 1 1
-0.1 1.1 1
0 1.1 1
0.1 1.1 1
0.2 1.1 1
0.3 1.1 1
0.4 1.1 1
0.5 1.1 1
0.6 1.1 1
0.7 1.1 1
0.8 1.1 1
0.9 1.1 1
1 1.1 1
1.1 1.1 1
1.2 1.1 1
1.3 1.1 1
1.4 1.1 1
1.5 1.1 1
1.6 1.1 1
1.7 1.1 1
1.8 1.1 1
1.9 1.1 1
-0.1 1.2 1
0 1.2 1
0.1 1.2 1
0.2 1.2 1
0.3 1.2 1
0.4 1.2 1
0.5 1.2 1
0.6 1.2 1
0.7 1.2 1
0.8 1.2 1
0.9 1.2 1
1 1.2 1
1.1 1.2 1
1.2 1.2 1
1.3 1.2 1
1.4 1.2 1
1.5 1.2 1
1.6 1.2 1
1.7 1.2 1
1.8 1.2 1
1.9 1.2 1
-0.1 1.3 1
0 1.3 1
0.1 1.3 1
0.2 1.3 1
0.3 1.3 1
0.4 1.3 1
0.5 1.3 1
0.6 1.3 1
0.7 1.3 1
0.8 1.3 1
0.9 1.3 1
1 1.3 1
1.1 1.3 1
1.2 1.3 1
1.3 1.3 1
1.4 1.3 1
1.5 1.3 1
1.6 1.3 1
1.7 1.3 1
1.8 1.3 1
1.9 1.3 1
-0.1 1.4 1
0 1.4 1
0.1 1.4 1
0.2 1.4 1
0.3 1.4 1
0.4 1.4 1
0.5 1.4 1
0.6 1.4 1
0.7 1.4 1
0.8 1.4 1
0.9 1.4 1
1 1.4 1
1.1 1.4 1
1.2 1.4 1
1.3 1.4 1
1.4 1.4 1
1.5 1.4 1
1.6 1.4 1
1.7 1.4 1
1.8 1.4 1
1.9 1.4 1
-0.1 1.5 1
0 1.5 1
0.1 1.5 1
0.2 1.5 1
0.3 1.5 1
0.4 1.5 1
0.5 1.5 1
0.6 1.5 1
0.7 1.5 1
0.8 1.5 1
0.9 1.5 1
1 1.5 1
1.1 1.5 1
1.2 1.5 1
1.3 1.5 1
1.4 1.5 1
1.5 1.5 1
1.6 1.5 1
1.7 1.5 1
1.8 1.5 1
1.9 1.5 1
-0.1 1.6 1
0 1.6 1
0.1 1.6 1
0.2 1.6 1
0.3 1.6 1
0.4 1.6 1
0.5 1.6 1
0.6 1.6 1
0.7 1.6 1
0.8 1.6 1
0.9 1.6 1
1 1.6 1
1.1 1.6 1
1.2 1.6 1
1.3 1.6 1
1.4 1.6 1
1.5 1.6 1
1.6 1.6 1
1.7 1.6 1
1.8 1.6 1
1.9 1.6 1
-0.1 1.7 1
0 1.7 1
0.1 1.7 1
0.2 1.7 1
0.3 1.7 1
0.4 1.7 1
0.5 1.7 1
0.6 1.7 1
0.7 1.7 1
0.8 1.7 1
0.9 1.7 1
1 1.7 1
1.1 1.7 1
1.2 1.7 1
1.3 1.7 1
1.4 1.7 1
1.5 1.7 1
1.6 1.7 1
1.7 1.7 1
1.8 1.7 1
1.9 1.7 1
-0.1 1.8 1
0 1.8 1
0.1 1.8 1
0.2 1.8 1
0.3 1.8 1
0.4 1.8 1
0.5 1.8 1
0.6 1.8 1
0.7 1.8 1
0.8 1.8 1
0.9 1.8 1
1 1.8 1
1.1 1.8 1
1.2 1.8 1
1.3 1.8 1
1.4 1.8 1
1.5 1.8 1
1.6 1.8 1
1.7 1.8 1
1.8 1.8 1
1.9 1.8 1
-0.1 1.9 1
0 1.9 1
0.1 1.9 1
0.2 1.9 1
0.3 1.9 1
0.4 1.9 1
0.5 1.9 1
0.6 1.9 1
0.7 1.9 1
0.8 1.9 1
0.9 1.9 1
1 1.9 1
1.1 1.9 1
1.2 1.9 1
1.3 1.9 1
1.4 1.9 1
1.5 1.9 1
1.6 1.9 1
1.7 1.9 1
1.8 1.9 1
1.9 1.9 1
-0.1 -0.1 1.1
0 -0.1 1.1
0.1 -0.1 1.1
0.2 -0.1 1.1
0.3 -0.1 1.1
0.4 -0.1 1.1
0.5 -0.1 1.1
0.6 -0.1 1.1
0.7 -0.1 1.1
0.8 -0.1 1.1
0.9 -0.1 1.1
1 -0.1 1.1
1.1 -0.1 1.1
1.2 -0.1 1.1
1.3 -0.1 1.1
1.4 -0.1 1.1
1.5 -0.1 1.1
1.6 -0.1 1.1
1.7 -0.1 1.1
1.8 -0.1 1.1
1.9 -0.1 1.1
-0.1 0 1.1
0 0 1.1
0.1 0 1.1
0.2 0 1.1
0.3 0 1.1
0.4 0 1.1
0.5 0 1.1
0.6 0 1.1
0.7 0 1.1
0.8 0 1.1
0.9 0 1.1
1 0 1.1
1.1 0 1.1
1.2 0 1.1
1.3 0 1.1
1.4 0 1.1
1.5 0 1.1
[...]
CELL_DATA 4000
VECTORS velocity double 
-2.46334e-05 -0.000151419 -0.00148275
-4.72495e-05 -0.000193119 -0.00307596
-5.59584e-05 -0.00020311 -0.00340594
-5.51974e-05 -0.000206498 -0.00342643
-4.9963e-05 -0.000207754 -0.00341035
-4.31679e-05 -0.000208322 -0.00339654
-3.61291e-05 -0.00020866 -0.00338708
-2.92792e-05 -0.000208908 -0.00338143
-2.26065e-05 -0.000209095 -0.00337927
-1.58973e-05 -0.000209211 -0.0033805
-8.84514e-06 -0.000209226 -0.00338507
-1.10197e-06 -0.000209094 -0.00339297
7.66316e-06 -0.000208754 -0.00340415
1.77117e-05 -0.000208121 -0.00341858
2.90899e-05 -0.000207076 -0.00343633
4.1354e-05 -0.00020542 -0.00345746
5.29422e-05 -0.000202793 -0.00347902
5.95592e-05 -0.000198402 -0.00345988
5.07122e-05 -0.000189868 -0.00312174
2.53561e-05 -0.000154466 -0.001505
-4.15286e-05 -0.000392525 -0.00337838
-7.53617e-05 -0.000502545 -0.00648532
-8.8265e-05 -0.00052529 -0.00710138
-8.79579e-05 -0.000533378 -0.00714848
-8.12123e-05 -0.000537019 -0.00713013
-7.17611e-05 -0.00053899 -0.00711309
-6.13667e-05 -0.000540249 -0.00710124
-5.07383e-05 -0.000541139 -0.00709402
-4.00322e-05 -0.000541761 -0.00709112
-2.91197e-05 -0.000542115 -0.00709241
-1.77124e-05 -0.000542142 -0.00709782
-5.41716e-06 -0.000541739 -0.00710737
8.18897e-06 -0.00054076 -0.00712094
2.35011e-05 -0.000539004 -0.00713847
4.07443e-05 -0.000536192 -0.00715993
5.97033e-05 -0.000531902 -0.00718522
7.91147e-05 -0.000525456 -0.00720928
9.43353e-05 -0.000515423 -0.00716275
8.86905e-05 -0.000495279 -0.00653648
4.43452e-05 -0.000395668 -0.00340205
-5.63718e-05 -0.000666766 -0.00434256
-9.74495e-05 -0.000862955 -0.00803492
-0.000111619 -0.000900188 -0.00874996
-0.000109917 -0.000913221 -0.00880767
-0.000100824 -0.000919576 -0.00879019
-8.87877e-05 -0.000923264 -0.00877319
-7.58373e-05 -0.000925685 -0.00876132
-6.2766e-05 -0.000927388 -0.00875414
-4.97357e-05 -0.000928557 -0.00875137
-3.65821e-05 -0.000929211 -0.00875291
-2.29539e-05 -0.000929265 -0.00875866
-8.37261e-06 -0.000928555 -0.00876861
7.69481e-06 -0.000926844 -0.0087826
2.57815e-05 -0.000923799 -0.00880048
4.63045e-05 -0.000918987 -0.00882207
6.92976e-05 -0.000911812 -0.00884703
9.37947e-05 -0.000901388 -0.00886941
0.000115136 -0.000885691 -0.008811
0.000113664 -0.000851927 -0.00808506
5.6832e-05 -0.000668722 -0.00436639
-6.99792e-05 -0.000951401 -0.00527891
-0.000118333 -0.00124821 -0.00946752
-0.000133996 -0.00130202 -0.0102668
-0.00013096 -0.00132006 -0.0103347
-0.000119472 -0.00132913 -0.0103184
-0.000104797 -0.00133458 -0.0103016
-8.92941e-05 -0.00133821 -0.0102898
-7.38509e-05 -0.00134076 -0.0102827
-5.86213e-05 -0.00134251 -0.0102801
-4.33762e-05 -0.0013435 -0.0102819
-2.76691e-05 -0.00134362 -0.010288
-1.09042e-05 -0.00134263 -0.0102984
7.59088e-06 -0.00134022 -0.0103128
2.84981e-05 -0.00133591 -0.0103309
5.24025e-05 -0.00132911 -0.0103525
7.951e-05 -0.00131907 -0.0103768
0.000108933 -0.00130476 -0.0103971
0.000135621 -0.00128343 -0.0103272
0.000136912 -0.00123378 -0.00951656
6.8456e-05 -0.000951983 -0.00530347
-8.3907e-05 -0.00123324 -0.00645123
-0.000140171 -0.00164125 -0.0112528
-0.000157741 -0.00171387 -0.0121564
-0.000153517 -0.00173701 -0.0122365
-0.000139607 -0.00174872 -0.0122211
-0.000122185 -0.00175585 -0.0122043
-0.000103988 -0.00176064 -0.0121924
-8.6022e-05 -0.00176403 -0.0121854
-6.84352e-05 -0.00176638 -0.0121829
-5.09272e-05 -0.00176775 -0.012185
-3.29423e-05 -0.001768 -0.0121915
-1.37474e-05 -0.00176684 -0.0122023
7.49469e-06 -0.00176384 -0.0122172
3.16337e-05 -0.00175839 -0.0122358
5.94088e-05 -0.00174973 -0.0122576
9.11463e-05 -0.00173695 -0.0122815
0.000125931 -0.00171885 -0.0122998
0.000158093 -0.00169171 -0.0122166
0.000161649 -0.00162375 -0.0113013
8.08243e-05 -0.00123259 -0.00647678
-9.90873e-05 -0.00149844 -0.00792246
-0.000164126 -0.00202346 -0.0134894
-0.000183911 -0.00211687 -0.0145221
-0.000178453 -0.0021452 -0.0146166
-0.000161918 -0.00215937 -0.0146021
-0.000141496 -0.00216804 -0.0145851
-0.000120356 -0.00217388 -0.014573
-9.96401e-05 -0.00217804 -0.0145659
-7.94892e-05 -0.00218098 -0.0145635
-5.95201e-05 -0.00218279 -0.0145658
-3.90468e-05 -0.00218329 -0.0145727
-1.71785e-05 -0.00218212 -0.014584
7.11555e-06 -0.00217874 -0.0145996
3.48906e-05 -0.00217238 -0.0146188
6.70626e-05 -0.00216211 -0.014641
0.000104064 -0.00214678 -0.0146649
0.000144895 -0.00212498 -0.0146815
0.000183102 -0.00209177 -0.0145827
0.000188982 -0.00200323 -0.0135379
9.44912e-05 -0.00149674 -0.00794912
-0.000115942 -0.00172751 -0.00973821
-0.000190703 -0.00236926 -0.016243
-0.000212909 -0.00248483 -0.0174328
-0.000206026 -0.00251827 -0.0175444
-0.000186532 -0.0025346 -0.0175308
-0.000162766 -0.00254453 -0.0175134
-0.000138383 -0.00255122 -0.017501
-0.000114673 -0.00255604 -0.0174937
-9.17697e-05 -0.00255953 -0.0174913
-6.91897e-05 -0.00256181 -0.0174938
-4.60874e-05 -0.0025627 -0.0175011
-2.13795e-05 -0.00256176 -0.0175131
6.19197e-06 -0.00255832 -0.0175294
3.79395e-05 -0.00255145 -0.0175493
7.50094e-05 -0.00253997 -0.0175721
0.000117969 -0.00252247 -0.0175963
0.000165701 -0.00249719 -0.0176113
0.000210809 -0.00245768 -0.0174945
0.000219381 -0.00234675 -0.0162921
0.000109691 -0.00172489 -0.009766
-0.000134571 -0.00189178 -0.0119522
-0.000219929 -0.00264189 -0.0195907
-0.000244618 -0.00277994 -0.0209695
-0.000235986 -0.00281806 -0.0211013
-0.000213114 -0.00283596 -0.0210886
-0.000185623 -0.00284665 -0.0210707
-0.000157701 -0.00285382 -0.0210579
-0.000130798 -0.00285905 -0.0210504
-0.000105024 -0.00286298 -0.021048
-7.9786e-05 -0.00286575 -0.0210508
-5.40533e-05 -0.00286718 -0.0210585
-2.65027e-05 -0.00286679 -0.0210712
4.40925e-06 -0.00286377 -0.0210883
4.03185e-05 -0.00285701 -0.0211091
8.26829e-05 -0.00284503 -0.0211326
0.000132274 -0.00282606 -0.021157
0.000187862 -0.00279787 -0.0211705
0.00024094 -0.00275214 -0.0210325
0.000252828 -0.00261783 -0.0196403
0.000126414 -0.0018883 -0.0119809
-0.000154712 -0.00195051 -0.0146217
-0.000251227 -0.00278957 -0.0236154
-0.000278217 -0.00294877 -0.0252191
-0.00026737 -0.00299045 -0.0253748
-0.000240659 -0.00300885 -0.0253632
-0.000209094 -0.00301945 -0.0253448
-0.000177424 -0.00302647 -0.0253316
-0.000147251 -0.00303168 -0.0253238
-0.000118647 -0.0030358 -0.0253215
-9.08923e-05 -0.00303902 -0.0253244
-6.2756e-05 -0.00304116 -0.0253327
-3.26318e-05 -0.0030417 -0.025346
1.38243e-06 -0.00303977 -0.025364
4.13397e-05 -0.00303405 -0.0253857
8.91318e-05 -0.00302274 -0.02541
0.000145855 -0.0030036 -0.0254348
0.000210225 -0.0029737 -0.0254465
0.000272485 -0.0029225 -0.0252833
0.0002886 -0.00276517 -0.0236653
0.0001443 -0.00194608 -0.0146513
-0.00017555 -0.0018488 -0.0177999
-0.000283092 -0.0027425 -0.0283948
-0.000311798 -0.002919 -0.0302635
-0.000298122 -0.00296198 -0.0304473
-0.000267141 -0.00297907 -0.0304369
-0.000231299 -0.00298821 -0.0304179
-0.000195874 -0.0029941 -0.0304042
-0.000162595 -0.0029986 -0.0303962
-0.000131479 -0.00300248 -0.0303938
-0.000101666 -0.00300596 -0.030397
-7.17123e-05 -0.0030089 -0.0304058
-3.9703e-05 -0.00301084 -0.0304199
-3.3127e-06 -0.00301088 -0.0304388
4.00426e-05 -0.00300755 -0.0304615
9.28617e-05 -0.00299874 -0.0304866
0.000156774 -0.00298164 -0.0305119
0.000230597 -0.00295235 -0.0305214
0.000303263 -0.00289765 -0.0303286
0.00032485 -0.00271972 -0.0284445
0.000162425 -0.00184313 -0.01783
-0.000195413 -0.00151749 -0.0215244
-0.000312574 -0.00241199 -0.0339867
-0.000341778 -0.00259826 -0.0361636
-0.000324527 -0.00263859 -0.0363799
-0.000289024 -0.00265145 -0.0363708
-0.000249041 -0.00265708 -0.036351
-0.000210258 -0.00266037 -0.0363367
-0.000174457 -0.00266313 -0.0363283
-0.000141583 -0.00266607 -0.0363258
-0.000110634 -0.00266944 -0.0363293
-7.99725e-05 -0.00267319 -0.0363385
-4.73803e-05 -0.00267699 -0.0363534
-1.00777e-05 -0.00268006 -0.0363733
3.51698e-05 -0.00268094 -0.0363972
9.1683e-05 -0.0026773 -0.0364235
0.000161948 -0.00266572 -0.0364494
0.000245226 -0.00264108 -0.0364566
0.000329269 -0.00258688 -0.0362294
0.000357977 -0.00239396 -0.0340356
0.000178989 -0.00151003 -0.0215545
-0.000211298 -0.000877435 -0.0258033
-0.000334498 -0.00169488 -0.0404109
-0.000362062 -0.00187812 -0.0429412
-0.00034046 -0.00190936 -0.043194
-0.000300636 -0.00191369 -0.0431857
-0.000257301 -0.0019129 -0.0431645
-0.000216267 -0.00191162 -0.0431491
-0.000179219 -0.00191123 -0.0431401
-0.000145991 -0.00191224 -0.0431373
-0.00011548 -0.00191487 -0.0431409
-8.59192e-05 -0.00191924 -0.0431506
-5.48656e-05 -0.00192526 -0.0431664
-1.91224e-05 -0.0019325 -0.0431876
2.5253e-05 -0.00193979 -0.0432131
8.26388e-05 -0.00194489 -0.043241
0.00015683 -0.00194394 -0.0432682
0.000248167 -0.00193042 -0.0432735
0.000343774 -0.0018839 -0.0430075
0.000381686 -0.00168632 -0.0404585
0.000190843 -0.000867332 -0.0258332
-0.000218363 0.000149366 -0.0305988
-0.000340493 -0.000485611 -0.0476239
-0.000362977 -0.000645858 -0.0505517
-0.000336463 -0.000658252 -0.0508442
-0.000293463 -0.000648078 -0.0508354
-0.000248727 -0.00063718 -0.0508116
-0.000207689 -0.000628881 -0.0507943
-0.000171708 -0.000623622 -0.050784
-0.00014046 -0.000621426 -0.0507806
-0.000112818 -0.000622425 -0.050784
-8.7032e-05 -0.000626916 -0.0507942
-6.06248e-05 -0.000635258 -0.050811
-3.01611e-05 -0.000647639 -0.0508339
8.91277e-06 -0.000663673 -0.0508618
6.21691e-05 -0.000681771 -0.0508926
0.000135253 -0.000698255 -0.0509229
0.000230631 -0.000705436 -0.0509278
0.000336218 -0.000678406 -0.0506196
0.000385929 -0.000493443 -0.0476703
0.000192964 0.000163349 -0.0306281
-0.000208764 0.00161569 -0.0358163
-0.000317314 0.00129685 -0.0555043
-0.000329731 0.00118924 -0.058869
-0.000298575 0.00120944 -0.0592023
-0.000255347 0.00124156 -0.0591905
-0.000213126 0.00126675 -0.0591621
-0.000176109 0.00128464 -0.0591414
-0.000145015 0.00129657 -0.0591289
-0.000119342 0.00130337 -0.0591241
-9.80649e-05 0.00130512 -0.059127
-7.97021e-05 0.00130133 -0.0591375
-6.20801e-05 0.00129105 -0.0591555
-4.19451e-05 0.00127312 -0.0591808
-1.45261e-05 0.00124655 -0.0592123
2.67543e-05 0.00121126 -0.0592482
8.97954e-05 0.00116944 -0.0592846
0.000180652 0.00112873 -0.0592925
0.0002909 0.00111816 -0.0589412
0.000355029 0.00126298 -0.0555512
0.000177515 0.0016351 -0.0358451
-0.000169765 0.00350751 -0.0412994
-0.000244193 0.00366235 -0.0638412
-0.000240233 0.00364946 -0.0676736
-0.000206905 0.0037199 -0.0680464
-0.000169635 0.00378186 -0.0680276
-0.000136982 0.003825 -0.0679916
-0.000110677 0.00385449 -0.0679655
-9.04328e-05 0.00387449 -0.0679493
-7.55879e-05 0.00388706 -0.0679423
-6.54404e-05 0.00389266 -0.067944
-5.91308e-05 0.00389066 -0.0679545
-5.53054e-05 0.00387946 -0.0679739
-5.16031e-05 0.00385667 -0.0680024
-4.39281e-05 0.00381927 -0.0680393
-2.5575e-05 0.00376423 -0.0680835
1.32859e-05 0.00369006 -0.0681305
8.36675e-05 0.00360122 -0.0681474
0.000185661 0.0035278 -0.0677551
0.000265045 0.00358999 -0.0638924
0.000132523 0.00353401 -0.0413285
-7.84303e-05 0.00567722 -0.0467268
-8.70534e-05 0.00648016 -0.0721756
-6.1061e-05 0.0066186 -0.0764886
-3.32537e-05 0.00675827 -0.0768975
-1.38492e-05 0.00685569 -0.0768671
-2.72481e-06 0.00691814 -0.0768201
2.27739e-06 0.0069595 -0.0767863
2.72239e-06 0.00698775 -0.0767649
-7.26423e-07 0.00700642 -0.0767544
-8.01028e-06 0.00701652 -0.0767542
-1.93329e-05 0.00701737 -0.0767643
-3.48041e-05 0.00700685 -0.0767852
-5.39276e-05 0.00698134 -0.0768175
-7.47607e-05 0.00693549 -0.0768618
-9.24968e-05 0.00686218 -0.0769175
-9.75185e-05 0.00675346 -0.0769812
-7.43409e-05 0.00660506 -0.0770148
-8.56458e-06 0.00643909 -0.0765875
7.80101e-05 0.0063558 -0.0722385
3.9005e-05 0.00571173 -0.0467578
0.000112035 0.00774333 -0.050277
0.000213112 0.00936871 -0.0776461
0.000259536 0.00972318 -0.082315
0.000262913 0.00994351 -0.082749
0.000242785 0.0100744 -0.0827033
0.000212898 0.0101524 -0.0826428
0.000180338 0.0102026 -0.0825996
0.000147782 0.0102369 -0.0825717
0.000115472 0.0102603 -0.0825568
8.23747e-05 0.0102743 -0.0825539
4.67538e-05 0.0102784 -0.0825631
6.41865e-06 0.0102703 -0.0825852
-4.10179e-05 0.0102456 -0.0826216
-9.75987e-05 0.010197 -0.0826741
-0.000163698 0.0101135 -0.082744
-0.000235158 0.00997886 -0.082829
-0.000298232 0.00977365 -0.0828871
-0.000324097 0.00949498 -0.0824407
-0.000270744 0.00918673 -0.0777314
-0.000135372 0.00778314 -0.0503114
0.000483164 0.00895823 -0.0397867
0.000739316 0.0114855 -0.0602575
0.000782231 0.0120861 -0.0638596
0.000722575 0.0123707 -0.0641945
0.000627786 0.0125181 -0.0641305
0.000528459 0.0126004 -0.0640584
0.000435961 0.0126517 -0.0640073
0.000352939 0.0126866 -0.063974
0.000278313 0.0127107 -0.0639553
0.000209342 0.012726 -0.0639499
0.000142326 0.0127321 -0.0639579
7.26224e-05 0.0127271 -0.0639803
-5.61893e-06 0.0127069 -0.0640195
-9.97947e-05 0.0126638 -0.0640782
-0.000218888 0.012585 -0.0641597
-0.00037222 0.0124485 -0.0642631
-0.000564062 0.012219 -0.0643495
-0.000773428 0.0118528 -0.064011
-0.000873322 0.0112744 -0.0603682
-0.000436661 0.00899082 -0.0398284
0.00106223 0.00807684 0.0422419
0.00146964 0.0110698 0.0695322
0.00144193 0.011789 0.0742477
0.00126094 0.0120647 0.0748505
0.00105236 0.0121912 0.0749854
0.000859328 0.0122577 0.075063
0.00069254 0.0122977 0.0751148
0.000551207 0.0123243 0.0751479
0.000430829 0.0123425 0.0751662
0.00032579 0.0123541 0.0751713
0.000229931 0.0123592 0.0751633
0.000136194 0.0123565 0.0751408
3.57271e-05 0.0123431 0.0751017
-8.3623e-05 0.0123133 0.0750424
-0.000239808 0.0122566 0.0749598
-0.00046063 0.0121537 0.0748518
-0.000788794 0.0119678 0.0747007
-0.00126518 0.0116281 0.074116
-0.00171193 0.0109178 0.0694452
-0.000855966 0.00808139 0.0421596
0.00128168 0.00403842 0.38897
0.00166741 0.00553488 0.526422
0.00151067 0.00589452 0.547364
0.00122315 0.00603235 0.550044
0.000953193 0.00609561 0.550381
0.000733283 0.00612883 0.550464
0.000561431 0.00614884 0.550505
0.000427709 0.00616214 0.550528
0.000321877 0.00617125 0.550539
0.000235035 0.00617705 0.550539
0.000159429 0.0061796 0.550529
8.75675e-05 0.00617826 0.550508
1.09042e-05 0.00617156 0.550474
-8.21804e-05 0.00615664 0.550424
-0.000210181 0.0061283 0.550354
-0.000407004 0.00607685 0.550252
-0.000741514 0.0059839 0.549928
-0.00131631 0.00581406 0.547328
-0.00193163 0.00545891 0.526473
-0.000965813 0.0040407 0.388764
-1.10343e-05 -0.000182405 -0.00120255
-2.30919e-05 -0.000230251 -0.00273962
-2.86204e-05 -0.000239465 -0.00306871
-2.87234e-05 -0.000242489 -0.00308789
-2.61405e-05 -0.000243663 -0.00306985
-2.27392e-05 -0.000244209 -0.00305434
-1.94101e-05 -0.000244538 -0.00304364
-1.64249e-05 -0.000244782 -0.00303716
-1.37272e-05 -0.000244976 -0.00303456
-1.10961e-05 -0.000245113 -0.00303573
-8.22427e-06 -0.000245165 -0.00304068
-4.7576e-06 -0.00024509 -0.00304945
-3.35102e-07 -0.000244824 -0.00306206
5.33572e-06 -0.000244282 -0.00307851
1.23276e-05 -0.000243333 -0.00309877
2.01962e-05 -0.000241783 -0.00312261
2.74043e-05 -0.000239325 -0.00314628
3.0439e-05 -0.000235355 -0.00312714
2.42885e-05 -0.000227404 -0.00278764
1.21442e-05 -0.000185001 -0.00122603
-2.27314e-05 -0.000496849 -0.00303111
-4.31064e-05 -0.000636652 -0.00607482
-5.20438e-05 -0.000661155 -0.00669497
-5.26596e-05 -0.000668915 -0.00674131
-4.90257e-05 -0.000672293 -0.00672047
-4.37008e-05 -0.000674088 -0.0067012
-3.79572e-05 -0.00067523 -0.0066877
-3.22905e-05 -0.000676053 -0.00667936
-2.6769e-05 -0.000676662 -0.00667585
-2.12244e-05 -0.00067706 -0.00667704
-1.53388e-05 -0.000677193 -0.00668292
-8.69425e-06 -0.00067696 -0.00669359
-8.22688e-07 -0.000676209 -0.00670903
8.7152e-06 -0.000674726 -0.00672921
2.01687e-05 -0.000672202 -0.00675402
3.32757e-05 -0.000668191 -0.00678297
4.66199e-05 -0.000662016 -0.00680998
5.60715e-05 -0.000652195 -0.00676281
5.19111e-05 -0.000629953 -0.00612949
2.59555e-05 -0.000499883 -0.00305635
-3.66939e-05 -0.00088206 -0.00397484
-6.42017e-05 -0.0011491 -0.00760982
-7.44514e-05 -0.00119338 -0.00833084
-7.37473e-05 -0.00120649 -0.0083878
-6.78352e-05 -0.00121242 -0.00836757
-5.99943e-05 -0.00121575 -0.0083481
-5.17825e-05 -0.00121791 -0.0083344
-4.37914e-05 -0.00121945 -0.00832597
-3.60998e-05 -0.00122057 -0.00832249
-2.85007e-05 -0.00122129 -0.00832388
-2.06068e-05 -0.00122151 -0.00833012
-1.19046e-05 -0.00122109 -0.00834128
-1.79932e-06 -0.00121978 -0.00835731
1.03111e-05 -0.00121721 -0.00837811
2.48873e-05 -0.00121291 -0.00840342
4.19336e-05 -0.00120619 -0.0084325
6.0339e-05 -0.00119607 -0.00845826
7.59699e-05 -0.00117996 -0.00839922
7.58665e-05 -0.00113875 -0.00766406
3.79332e-05 -0.000884467 -0.00400027
-5.03557e-05 -0.001311 -0.00488546
-8.53172e-05 -0.00173653 -0.00901994
-9.70537e-05 -0.0018052 -0.00982642
-9.49679e-05 -0.00182399 -0.00989343
-8.66137e-05 -0.00183251 -0.00987399
-7.61025e-05 -0.00183741 -0.00985441
-6.53312e-05 -0.00184063 -0.00984056
-5.49966e-05 -0.00184292 -0.00983207
-4.51685e-05 -0.00184458 -0.00982867
-3.55765e-05 -0.00184563 -0.00983027
-2.57347e-05 -0.00184598 -0.00983689
-1.49998e-05 -0.0018454 -0.00984854
-2.62063e-06 -0.00184354 -0.00986518
1.21876e-05 -0.00183991 -0.00988657
3.00954e-05 -0.00183383 -0.00991228
5.13312e-05 -0.00182445 -0.00994126
7.49386e-05 -0.00181051 -0.0099654
9.64639e-05 -0.00178797 -0.009895
9.94936e-05 -0.00172304 -0.00907364
4.97468e-05 -0.00131254 -0.0049117
-6.38979e-05 -0.00177246 -0.00603061
-0.000106819 -0.00238468 -0.0107826
-0.000120432 -0.00248267 -0.0116949
-0.000117122 -0.00250749 -0.011774
-0.000106337 -0.00251855 -0.0117553
-9.3105e-05 -0.00252497 -0.0117353
-7.97033e-05 -0.00252921 -0.0117211
-6.69498e-05 -0.00253225 -0.0117125
-5.49069e-05 -0.00253444 -0.0117091
-4.32297e-05 -0.00253587 -0.0117109
-3.13183e-05 -0.00253639 -0.0117179
-1.83812e-05 -0.00253572 -0.0117301
-3.48585e-06 -0.00253342 -0.0117475
1.43535e-05 -0.00252883 -0.0117697
3.6011e-05 -0.00252111 -0.0117961
6.18874e-05 -0.0025092 -0.0118253
9.1059e-05 -0.00249156 -0.011848
0.000118469 -0.00246228 -0.0117643
0.000123876 -0.00236852 -0.0108364
6.19381e-05 -0.00177315 -0.00605796
-7.79955e-05 -0.00225864 -0.00747932
-0.000129533 -0.00308265 -0.0130049
-0.000145342 -0.00321498 -0.0140488
-0.000140839 -0.00324622 -0.0141423
-0.000127514 -0.0032597 -0.014124
-0.000111405 -0.00326754 -0.0141035
-9.52198e-05 -0.00327273 -0.0140888
-7.99109e-05 -0.00327646 -0.0140799
-6.55339e-05 -0.00327921 -0.0140764
-5.16586e-05 -0.00328105 -0.0140784
-3.75521e-05 -0.00328184 -0.0140858
-2.22508e-05 -0.00328123 -0.0140987
-4.61362e-06 -0.00327865 -0.0141169
1.65786e-05 -0.0032733 -0.0141401
4.24208e-05 -0.00326413 -0.0141674
7.34654e-05 -0.00324985 -0.0141972
0.00010873 -0.00322863 -0.0142188
0.000142333 -0.00319207 -0.0141195
0.000149825 -0.0030642 -0.0130593
7.49125e-05 -0.00225857 -0.00750791
-9.31981e-05 -0.00275803 -0.00928451
-0.000154147 -0.00381512 -0.0157621
-0.000172395 -0.00398658 -0.0169665
-0.00016659 -0.00402459 -0.0170773
-0.000150475 -0.00404029 -0.0170596
-0.000131221 -0.00404934 -0.0170384
-0.000112019 -0.00405534 -0.0170231
-9.39716e-05 -0.00405969 -0.0170138
-7.71243e-05 -0.00406296 -0.0170101
-6.09503e-05 -0.00406526 -0.0170122
-4.45582e-05 -0.00406645 -0.0170201
-2.67811e-05 -0.00406609 -0.0170337
-6.22698e-06 -0.0040635 -0.0170529
1.86028e-05 -0.00405771 -0.0170772
4.90713e-05 -0.00404742 -0.0171056
8.58944e-05 -0.00403107 -0.0171363
0.000127975 -0.00400638 -0.0171568
0.0001684 -0.00396194 -0.0170391
0.000178049 -0.00379472 -0.0158174
8.90243e-05 -0.00275722 -0.00931436
-0.000109856 -0.00325019 -0.0115097
-0.000181059 -0.00455618 -0.0191433
-0.000201868 -0.00477095 -0.0205416
-0.000194505 -0.00481585 -0.0206733
-0.000175228 -0.00483334 -0.0206563
-0.000152476 -0.00484321 -0.0206344
-0.000129976 -0.00484973 -0.0206185
-0.000108998 -0.00485452 -0.0206088
-8.95697e-05 -0.00485823 -0.0206051
-7.10537e-05 -0.00486103 -0.0206074
-5.23745e-05 -0.00486275 -0.0206156
-3.21203e-05 -0.00486291 -0.0206299
-8.59278e-06 -0.00486072 -0.0206501
2.00573e-05 -0.00485501 -0.0206756
5.55376e-05 -0.00484419 -0.0207052
9.87865e-05 -0.00482633 -0.0207367
0.000148572 -0.00479854 -0.020756
0.000196754 -0.00474571 -0.0206163
0.000208962 -0.00453433 -0.0191996
0.000104481 -0.00324857 -0.0115407
-0.000128019 -0.00370085 -0.0142255
-0.000210159 -0.00526317 -0.0232482
-0.000233436 -0.00552421 -0.0248783
-0.000224084 -0.00557555 -0.0250352