# vtk DataFile Version 2.0 
Visualization 
ASCII 
DATASET STRUCTURED_GRID 
DIMENSIONS 21 21 11
POINTS 4851 float
-0.1 -0.1 -0.1
0 -0.1 -0.1
0.1 -0.1 -0.1
0.2 -0.1 -0.1
0.3 -0.1 -0.1
0.4 -0.1 -0.1
0.5 -0.1 -0.1
0.6 -0.1 -0.1
0.7 -0.1 -0.1
0.8 -0.1 -0.1
0.9 -0.1 -0.1
1 -0.1 -0.1
1.1 -0.1 -0.1
1.2 -0.1 -0.1
1.3 -0.1 -0.1
1.4 -0.1 -0.1
1.5 -0.1 -0.1
1.6 -0.1 -0.1
1.7 -0.1 -0.1
1.8 -0.1 -0.1
1.9 -0.1 -0.1
-0.1 0 -0.1
0 0 -0.1
0.1 0 -0.1
0.2 0 -0.1
0.3 0 -0.1
0.4 0 -0.1
0.5 0 -0.1
0.6 0 -0.1
0.7 0 -0.1
0.8 0 -0.1
0.9 0 -0.1
1 0 -0.1
1.1 0 -0.1
1.2 0 -0.1
1.3 0 -0.1
1.4 0 -0.1
1.5 0 -0.1
1.6 0 -0.1
1.7 0 -0.1
1.8 0 -0.1
1.9 0 -0.1
-0.1 0.1 -0.1
0 0.1 -0.1
0.1 0.1 -0.1
0.2 0.1 -0.1
0.3 0.1 -0.1
0.4 0.1 -0.1
0.5 0.1 -0.1
0.6 0.1 -0.1
0.7 0.1 -0.1
0.8 0.1 -0.1
0.9 0.1 -0.1
1 0.1 -0.1
1.1 0.1 -0.1
1.2 0.1 -0.1
1.3 0.1 -0.1
1.4 0.1 -0.1
1.5 0.1 -0.1
1.6 0.1 -0.1
1.7 0.1 -0.1
1.8 0.1 -0.1
1.9 0.1 -0.1
-0.1 0.2 -0.1
0 0.2 -0.1
0.1 0.2 -0.1
0.2 0.2 -0.1
0.3 0.2 -0.1
0.4 0.2 -0.1
0.5 0.2 -0.1
0.6 0.2 -0.1
0.7 0.2 -0.1
0.8 0.2 -0.1
0.9 0.2 -0.1
1 0.2 -0.1
1.1 0.2 -0.1
1.2 0.2 -0.1
1.3 0.2 -0.1
1.4 0.2 -0.1
1.5 0.2 -0.1
1.6 0.2 -0.1
1.7 0.2 -0.1
1.8 0.2 -0.1
1.9 0.2 -0.1
-0.1 0.3 -0.1
0 0.3 -0.1
0.1 0.3 -0.1
0.2 0.3 -0.1
0.3 0.3 -0.1
0.4 0.3 -0.1
0.5 0.3 -0.1
0.6 0.3 -0.1
0.7 0.3 -0.1
0.8 0.3 -0.1
0.9 0.3 -0.1
1 0.3 -0.1
1.1 0.3 -0.1
1.2 0.3 -0.1
1.3 0.3 -0.1
1.4 0.3 -0.1
1.5 0.3 -0.1
1.6 0.3 -0.1
1.7 0.3 -0.1
1.8 0.3 -0.1
1.9 0.3 -0.1
-0.1 0.4 -0.1
0 0.4 -0.1
0.1 0.4 -0.1
0.2 0.4 -0.1
0.3 0.4 -0.1
0.4 0.4 -0.1
0.5 0.4 -0.1
0.6 0.4 -0.1
0.7 0.4 -0.1
0.8 0.4 -0.1
0.9 0.4 -0.1
1 0.4 -0.1
1.1 0.4 -0.1
1.2 0.4 -0.1
1.3 0.4 -0.1
1.4 0.4 -0.1
1.5 0.4 -0.1
1.6 0.4 -0.1
1.7 0.4 -0.1
1.8 0.4 -0.1
1.9 0.4 -0.1
-0.1 0.5 -0.1
0 0.5 -0.1
0.1 0.5 -0.1
0.2 0.5 -0.1
0.3 0.5 -0.1
0.4 0.5 -0.1
0.5 0.5 -0.1
0.6 0.5 -0.1
0.7 0.5 -0.1
0.8 0.5 -0.1
0.9 0.5 -0.1
1 0.5 -0.1
1.1 0.5 -0.1
1.2 0.5 -0.1
1.3 0.5 -0.1
1.4 0.5 -0.1
1.5 0.5 -0.1
1.6 0.5 -0.1
1.7 0.5 -0.1
1.8 0.5 -0.1
1.9 0.5 -0.1
-0.1 0.6 -0.1
0 0.6 -0.1
0.1 0.6 -0.1
0.2 0.6 -0.1
0.3 0.6 -0.1
0.4 0.6 -0.1
0.5 0.6 -0.1
0.6 0.6 -0.1
0.7 0.6 -0.1
0.8 0.6 -0.1
0.9 0.6 -0.1
1 0.6 -0.1
1.1 0.6 -0.1
1.2 0.6 -0.1
1.3 0.6 -0.1
1.4 0.6 -0.1
1.5 0.6 -0.1
1.6 0.6 -0.1
1.7 0.6 -0.1
1.8 0.6 -0.1
1.9 0.6 -0.1
-0.1 0.7 -0.1
0 0.7 -0.1
0.1 0.7 -0.1
0.2 0.7 -0.1
0.3 0.7 -0.1
0.4 0.7 -0.1
0.5 0.7 -0.1
0.6 0.7 -0.1
0.7 0.7 -0.1
0.8 0.7 -0.1
0.9 0.7 -0.1
1 0.7 -0.1
1.1 0.7 -0.1
1.2 0.7 -0.1
1.3 0.7 -0.1
1.4 0.7 -0.1
1.5 0.7 -0.1
1.6 0.7 -0.1
1.7 0.7 -0.1
1.8 0.7 -0.1
1.9 0.7 -0.1
-0.1 0.8 -0.1
0 0.8 -0.1
0.1 0.8 -0.1
0.2 0.8 -0.1
0.3 0.8 -0.1
0.4 0.8 -0.1
0.5 0.8 -0.1
0.6 0.8 -0.1
0.7 0.8 -0.1
0.8 0.8 -0.1
0.9 0.8 -0.1
1 0.8 -0.1
1.1 0.8 -0.1
1.2 0.8 -0.1
1.3 0.8 -0.1
1.4 0.8 -0.1
1.5 0.8 -0.1
1.6 0.8 -0.1
1.7 0.8 -0.1
1.8 0.8 -0.1
1.9 0.8 -0.1
-0.1 0.9 -0.1
0 0.9 -0.1
0.1 0.9 -0.1
0.2 0.9 -0.1
0.3 0.9 -0.1
0.4 0.9 -0.1
0.5 0.9 -0.1
0.6 0.9 -0.1
0.7 0.9 -0.1
0.8 0.9 -0.1
0.9 0.9 -0.1
1 0.9 -0.1
1.1 0.9 -0.1
1.2 0.9 -0.1
1.3 0.9 -0.1
1.4 0.9 -0.1
1.5 0.9 -0.1
1.6 0.9 -0.1
1.7 0.9 -0.1
1.8 0.9 -0.1
1.9 0.9 -0.1
-0.1 1 -0.1
0 1 -0.1
0.1 1 -0.1
0.2 1 -0.1
0.3 1 -0.1
0.4 1 -0.1
0.5 1 -0.1
0.6 1 -0.1
0.7 1 -0.1
0.8 1 -0.1
0.9 1 -0.1
1 1 -0.1
1.1 1 -0.1
1.2 1 -0.1
1.3 1 -0.1
1.4 1 -0.1
1.5 1 -0.1
1.6 1 -0.1
1.7 1 -0.1
1.8 1 -0.1
1.9 1 -0.1
-0.1 1.1 -0.1
0 1.1 -0.1
0.1 1.1 -0.1
0.2 1.1 -0.1
0.3 1.1 -0.1
0.4 1.1 -0.1
0.5 1.1 -0.1
0.6 1.1 -0.1
0.7 1.1 -0.1
0.8 1.1 -0.1
0.9 1.1 -0.1
1 1.1 -0.1
1.1 1.1 -0.1
1.2 1.1 -0.1
1.3 1.1 -0.1
1.4 1.1 -0.1
1.5 1.1 -0.1
1.6 1.1 -0.1
1.7 1.1 -0.1
1.8 1.1 -0.1
1.9 1.1 -0.1
-0.1 1.2 -0.1
0 1.2 -0.1
0.1 1.2 -0.1
0.2 1.2 -0.1
0.3 1.2 -0.1
0.4 1.2 -0.1
0.5 1.2 -0.1
0.6 1.2 -0.1
0.7 1.2 -0.1
0.8 1.2 -0.1
0.9 1.2 -0.1
1 1.2 -0.1
1.1 1.2 -0.1
1.2 1.2 -0.1
1.3 1.2 -0.1
1.4 1.2 -0.1
1.5 1.2 -0.1
1.6 1.2 -0.1
1.7 1.2 -0.1
1.8 1.2 -0.1
1.9 1.2 -0.1
-0.1 1.3 -0.1
0 1.3 -0.1
0.1 1.3 -0.1
0.2 1.3 -0.1
0.3 1.3 -0.1
0.4 1.3 -0.1
0.5 1.3 -0.1
0.6 1.3 -0.1
0.7 1.3 -0.1
0.8 1.3 -0.1
0.9 1.3 -0.1
1 1.3 -0.1
1.1 1.3 -0.1
1.2 1.3 -0.1
1.3 1.3 -0.1
1.4 1.3 -0.1
1.5 1.3 -0.1
1.6 1.3 -0.1
1.7 1.3 -0.1
1.8 1.3 -0.1
1.9 1.3 -0.1
-0.1 1.4 -0.1
0 1.4 -0.1
0.1 1.4 -0.1
0.2 1.4 -0.1
0.3 1.4 -0.1
0.4 1.4 -0.1
0.5 1.4 -0.1
0.6 1.4 -0.1
0.7 1.4 -0.1
0.8 1.4 -0.1
0.9 1.4 -0.1
1 1.4 -0.1
1.1 1.4 -0.1
1.2 1.4 -0.1
1.3 1.4 -0.1
1.4 1.4 -0.1
1.5 1.4 -0.1
1.6 1.4 -0.1
1.7 1.4 -0.1
1.8 1.4 -0.1
1.9 1.4 -0.1
-0.1 1.5 -0.1
0 1.5 -0.1
0.1 1.5 -0.1
0.2 1.5 -0.1
0.3 1.5 -0.1
0.4 1.5 -0.1
0.5 1.5 -0.1
0.6 1.5 -0.1
0.7 1.5 -0.1
0.8 1.5 -0.1
0.9 1.5 -0.1
1 1.5 -0.1
1.1 1.5 -0.1
1.2 1.5 -0.1
1.3 1.5 -0.1
1.4 1.5 -0.1
1.5 1.5 -0.1
1.6 1.5 -0.1
1.7 1.5 -0.1
1.8 1.5 -0.1
1.9 1.5 -0.1
-0.1 1.6 -0.1
0 1.6 -0.1
0.1 1.6 -0.1
0.2 1.6 -0.1
0.3 1.6 -0.1
0.4 1.6 -0.1
0.5 1.6 -0.1
0.6 1.6 -0.1
0.7 1.6 -0.1
0.8 1.6 -0.1
0.9 1.6 -0.1
1 1.6 -0.1
1.1 1.6 -0.1
1.2 1.6 -0.1
1.3 1.6 -0.1
1.4 1.6 -0.1
1.5 1.6 -0.1
1.6 1.6 -0.1
1.7 1.6 -0.1
1.8 1.6 -0.1
1.9 1.6 -0.1
-0.1 1.7 -0.1
0 1.7 -0.1
0.1 1.7 -0.1
0.2 1.7 -0.1
0.3 1.7 -0.1
0.4 1.7 -0.1
0.5 1.7 -0.1
0.6 1.7 -0.1
0.7 1.7 -0.1
0.8 1.7 -0.1
0.9 1.7 -0.1
1 1.7 -0.1
1.1 1.7 -0.1
1.2 1.7 -0.1
1.3 1.7 -0.1
1.4 1.7 -0.1
1.5 1.7 -0.1
1.6 1.7 -0.1
1.7 1.7 -0.1
1.8 1.7 -0.1
1.9 1.7 -0.1
-0.1 1.8 -0.1
0 1.8 -0.1
0.1 1.8 -0.1
0.2 1.8 -0.1
0.3 1.8 -0.1
0.4 1.8 -0.1
0.5 1.8 -0.1
0.6 1.8 -0.1
0.7 1.8 -0.1
0.8 1.8 -0.1
0.9 1.8 -0.1
1 1.8 -0.1
1.1 1.8 -0.1
1.2 1.8 -0.1
1.3 1.8 -0.1
1.4 1.8 -0.1
1.5 1.8 -0.1
1.6 1.8 -0.1
1.7 1.8 -0.1
1.8 1.8 -0.1
1.9 1.8 -0.1
-0.1 1.9 -0.1
0 1.9 -0.1
0.1 1.9 -0.1
0.2 1.9 -0.1
0.3 1.9 -0.1
0.4 1.9 -0.1
0.5 1.9 -0.1
0.6 1.9 -0.1
0.7 1.9 -0.1
0.8 1.9 -0.1
0.9 1.9 -0.1
1 1.9 -0.1
1.1 1.9 -0.1
1.2 1.9 -0.1
1.3 1.9 -0.1
1.4 1.9 -0.1
1.5 1.9 -0.1
1.6 1.9 -0.1
1.7 1.9 -0.1
1.8 1.9 -0.1
1.9 1.9 -0.1
-0.1 -0.1 0
0 -0.1 0
0.1 -0.1 0
0.2 -0.1 0
0.3 -0.1 0
0.4 -0.1 0
0.5 -0.1 0
0.6 -0.1 0
0.7 -0.1 0
0.8 -0.1 0
0.9 -0.1 0
1 -0.1 0
1.1 -0.1 0
1.2 -0.1 0
1.3 -0.1 0
1.4 -0.1 0
1.5 -0.1 0
1.6 -0.1 0
1.7 -0.1 0
1.8 -0.1 0
1.9 -0.1 0
-0.1 0 0
0 0 0
0.1 0 0
0.2 0 0
0.3 0 0
0.4 0 0
0.5 0 0
0.6 0 0
0.7 0 0
0.8 0 0
0.9 0 0
1 0 0
1.1 0 0
1.2 0 0
1.3 0 0
1.4 0 0
1.5 0 0
1.6 0 0
1.7 0 0
1.8 0 0
1.9 0 0
-0.1 0.1 0
0 0.1 0
0.1 0.1 0
0.2 0.1 0
0.3 0.1 0
0.4 0.1 0
0.5 0.1 0
0.6 0.1 0
0.7 0.1 0
0.8 0.1 0
0.9 0.1 0
1 0.1 0
1.1 0.1 0
1.2 0.1 0
1.3 0.1 0
1.4 0.1 0
1.5 0.1 0
1.6 0.1 0
1.7 0.1 0
1.8 0.1 0
1.9 0.1 0
-0.1 0.2 0
0 0.2 0
0.1 0.2 0
0.2 0.2 0
0.3 0.2 0
0.4 0.2 0
0.5 0.2 0
0.6 0.2 0
0.7 0.2 0
0.8 0.2 0
0.9 0.2 0
1 0.2 0
1.1 0.2 0
1.2 0.2 0
1.3 0.2 0
1.4 0.2 0
1.5 0.2 0
1.6 0.2 0
1.7 0.2 0
1.8 0.2 0
1.9 0.2 0
-0.1 0.3 0
0 0.3 0
0.1 0.3 0
0.2 0.3 0
0.3 0.3 0
0.4 0.3 0
0.5 0.3 0
0.6 0.3 0
0.7 0.3 0
0.8 0.3 0
0.9 0.3 0
1 0.3 0
1.1 0.3 0
1.2 0.3 0
1.3 0.3 0
1.4 0.3 0
1.5 0.3 0
1.6 0.3 0
1.7 0.3 0
1.8 0.3 0
1.9 0.3 0
-0.1 0.4 0
0 0.4 0
0.1 0.4 0
0.2 0.4 0
0.3 0.4 0
0.4 0.4 0
0.5 0.4 0
0.6 0.4 0
0.7 0.4 0
0.8 0.4 0
0.9 0.4 0
1 0.4 0
1.1 0.4 0
1.2 0.4 0
1.3 0.4 0
1.4 0.4 0
1.5 0.4 0
1.6 0.4 0
1.7 0.4 0
1.8 0.4 0
1.9 0.4 0
-0.1 0.5 0
0 0.5 0
0.1 0.5 0
0.2 0.5 0
0.3 0.5 0
0.4 0.5 0
0.5 0.5 0
0.6 0.5 0
0.7 0.5 0
0.8 0.5 0
0.9 0.5 0
1 0.5 0
1.1 0.5 0
1.2 0.5 0
1.3 0.5 0
1.4 0.5 0
1.5 0.5 0
1.6 0.5 0
1.7 0.5 0
1.8 0.5 0
1.9 0.5 0
-0.1 0.6 0
0 0.6 0
0.1 0.6 0
0.2 0.6 0
0.3 0.6 0
0.4 0.6 0
0.5 0.6 0
0.6 0.6 0
0.7 0.6 0
0.8 0.6 0
0.9 0.6 0
1 0.6 0
1.1 0.6 0
1.2 0.6 0
1.3 0.6 0
1.4 0.6 0
1.5 0.6 0
1.6 0.6 0
1.7 0.6 0
1.8 0.6 0
1.9 0.6 0
-0.1 0.7 0
0 0.7 0
0.1 0.7 0
0.2 0.7 0
0.3 0.7 0
0.4 0.7 0
0.5 0.7 0
0.6 0.7 0
0.7 0.7 0
0.8 0.7 0
0.9 0.7 0
1 0.7 0
1.1 0.7 0
1.2 0.7 0
1.3 0.7 0
1.4 0.7 0
1.5 0.7 0
1.6 0.7 0
1.7 0.7 0
1.8 0.7 0
1.9 0.7 0
-0.1 0.8 0
0 0.8 0
0.1 0.8 0
0.2 0.8 0
0.3 0.8 0
0.4 0.8 0
0.5 0.8 0
0.6 0.8 0
0.7 0.8 0
0.8 0.8 0
0.9 0.8 0
1 0.8 0
1.1 0.8 0
1.2 0.8 0
1.3 0.8 0
1.4 0.8 0
1.5 0.8 0
1.6 0.8 0
1.7 0.8 0
1.8 0.8 0
1.9 0.8 0
-0.1 0.9 0
0 0.9 0
0.1 0.9 0
0.2 0.9 0
0.3 0.9 0
0.4 0.9 0
0.5 0.9 0
0.6 0.9 0
0.7 0.9 0
0.8 0.9 0
0.9 0.9 0
1 0.9 0
1.1 0.9 0
1.2 0.9 0
1.3 0.9 0
1.4 0.9 0
1.5 0.9 0
1.6 0.9 0
1.7 0.9 0
1.8 0.9 0
1.9 0.9 0
-0.1 1 0
0 1 0
0.1 1 0
0.2 1 0
0.3 1 0
0.4 1 0
0.5 1 0
0.6 1 0
0.7 1 0
0.8 1 0
0.9 1 0
1 1 0
1.1 1 0
1.2 1 0
1.3 1 0
1.4 1 0
1.5 1 0
1.6 1 0
1.7 1 0
1.8 1 0
1.9 1 0
-0.1 1.1 0
0 1.1 0
0.1 1.1 0
0.2 1.1 0
0.3 1.1 0
0.4 1.1 0
0.5 1.1 0
0.6 1.1 0
0.7 1.1 0
0.8 1.1 0
0.9 1.1 0
1 1.1 0
1.1 1.1 0
1.2 1.1 0
1.3 1.1 0
1.4 1.1 0
1.5 1.1 0
1.6 1.1 0
1.7 1.1 0
1.8 1.1 0
1.9 1.1 0
-0.1 1.2 0
0 1.2 0
0.1 1.2 0
0.2 1.2 0
0.3 1.2 0
0.4 1.2 0
0.5 1.2 0
0.6 1.2 0
0.7 1.2 0
0.8 1.2 0
0.9 1.2 0
1 1.2 0
1.1 1.2 0
1.2 1.2 0
1.3 1.2 0
1.4 1.2 0
1.5 1.2 0
1.6 1.2 0
1.7 1.2 0
1.8 1.2 0
1.9 1.2 0
-0.1 1.3 0
0 1.3 0
0.1 1.3 0
0.2 1.3 0
0.3 1.3 0
0.4 1.3 0
0.5 1.3 0
0.6 1.3 0
0.7 1.3 0
0.8 1.3 0
0.9 1.3 0
1 1.3 0
1.1 1.3 0
1.2 1.3 0
1.3 1.3 0
1.4 1.3 0
1.5 1.3 0
1.6 1.3 0
1.7 1.3 0
1.8 1.3 0
1.9 1.3 0
-0.1 1.4 0
0 1.4 0
0.1 1.4 0
0.2 1.4 0
0.3 1.4 0
0.4 1.4 0
0.5 1.4 0
0.6 1.4 0
0.7 1.4 0
0.8 1.4 0
0.9 1.4 0
1 1.4 0
1.1 1.4 0
1.2 1.4 0
1.3 1.4 0
1.4 1.4 0
1.5 1.4 0
1.6 1.4 0
1.7 1.4 0
1.8 1.4 0
1.9 1.4 0
-0.1 1.5 0
0 1.5 0
0.1 1.5 0
0.2 1.5 0
0.3 1.5 0
0.4 1.5 0
0.5 1.5 0
0.6 1.5 0
0.7 1.5 0
0.8 1.5 0
0.9 1.5 0
1 1.5 0
1.1 1.5 0
1.2 1.5 0
1.3 1.5 0
1.4 1.5 0
1.5 1.5 0
1.6 1.5 0
1.7 1.5 0
1.8 1.5 0
1.9 1.5 0
-0.1 1.6 0
0 1.6 0
0.1 1.6 0
0.2 1.6 0
0.3 1.6 0
0.4 1.6 0
0.5 1.6 0
0.6 1.6 0
0.7 1.6 0
0.8 1.6 0
0.9 1.6 0
1 1.6 0
1.1 1.6 0
1.2 1.6 0
1.3 1.6 0
1.4 1.6 0
1.5 1.6 0
1.6 1.6 0
1.7 1.6 0
1.8 1.6 0
1.9 1.6 0
-0.1 1.7 0
0 1.7 0
0.1 1.7 0
0.2 1.7 0
0.3 1.7 0
0.4 1.7 0
0.5 1.7 0
0.6 1.7 0
0.7 1.7 0
0.8 1.7 0
0.9 1.7 0
1 1.7 0
1.1 1.7 0
1.2 1.7 0
1.3 1.7 0
1.4 1.7 0
1.5 1.7 0
1.6 1.7 0
1.7 1.7 0
1.8 1.7 0
1.9 1.7 0
-0.1 1.8 0
0 1.8 0
0.1 1.8 0
0.2 1.8 0
0.3 1.8 0
0.4 1.8 0
0.5 1.8 0
0.6 1.8 0
0.7 1.8 0
0.8 1.8 0
0.9 1.8 0
1 1.8 0
1.1 1.8 0
1.2 1.8 0
1.3 1.8 0
1.4 1.8 0
1.5 1.8 0
1.6 1.8 0
1.7 1.8 0
1.8 1.8 0
1.9 1.8 0
-0.1 1.9 0
0 1.9 0
0.1 1.9 0
0.2 1.9 0
0.3 1.9 0
0.4 1.9 0
0.5 1.9 0
0.6 1.9 0
0.7 1.9 0
0.8 1.9 0
0.9 1.9 0
1 1.9 0
1.1 1.9 0
1.2 1.9 0
1.3 1.9 0
1.4 1.9 0
1.5 1.9 0
1.6 1.9 0
1.7 1.9 0
1.8 1.9 0
[...]
CELL_DATA 4000
VECTORS velocity double 
-2.50539e-06 0.000327186 -0.00032468
-8.0123e-06 0.000393097 -0.000395623
-1.16464e-05 0.000400497 -0.000405163
-1.31063e-05 0.000402596 -0.000408407
-1.27299e-05 0.000403591 -0.000410141
-1.09314e-05 0.000404177 -0.000411224
-8.08395e-06 0.000404576 -0.000411956
-4.50044e-06 0.000404877 -0.000412468
-4.41983e-07 0.000405117 -0.000412816
3.85994e-06 0.000405308 -0.000413016
8.18921e-06 0.000405454 -0.000413066
1.23278e-05 0.000405531 -0.000412949
1.60565e-05 0.000405505 -0.000412627
1.91588e-05 0.000405322 -0.000412024
2.13986e-05 0.000404878 -0.000411032
2.25428e-05 0.000404001 -0.000409482
2.23865e-05 0.000402392 -0.000407111
2.08409e-05 0.000399408 -0.000403387
1.81319e-05 0.000391171 -0.000394679
9.06595e-06 0.000324621 -0.000327778
2.17844e-06 0.000888872 -0.000407051
-1.46224e-06 0.00108928 -0.000506001
-5.77726e-06 0.00111189 -0.000518672
-8.66192e-06 0.00111736 -0.000522688
-9.62604e-06 0.00111978 -0.000524815
-8.79726e-06 0.00112116 -0.000526143
-6.48797e-06 0.00112208 -0.000527039
-3.04013e-06 0.00112275 -0.000527662
1.2176e-06 0.00112328 -0.000528081
5.97676e-06 0.00112371 -0.000528319
1.09242e-05 0.00112403 -0.000528378
1.57441e-05 0.00112421 -0.000528238
2.01065e-05 0.00112416 -0.000527849
2.36542e-05 0.00112375 -0.000527119
2.59698e-05 0.00112273 -0.000525921
2.65572e-05 0.00112066 -0.000524051
2.48236e-05 0.00111683 -0.000521174
2.02185e-05 0.00110947 -0.000516572
1.38944e-05 0.00108562 -0.000504791
6.9472e-06 0.00088662 -0.000410324
1.36434e-05 0.00159088 -0.000440358
1.36913e-05 0.00198064 -0.000546534
8.34245e-06 0.00202391 -0.000559988
3.01395e-06 0.0020328 -0.000564384
-4.6751e-07 0.00203648 -0.000566748
-1.80051e-06 0.00203851 -0.000568222
-1.21104e-06 0.00203982 -0.000569213
9.26852e-07 0.00204078 -0.000569898
4.21441e-06 0.00204154 -0.000570356
8.25178e-06 0.00204216 -0.000570616
1.26373e-05 0.00204265 -0.000570683
1.69561e-05 0.00204295 -0.000570527
2.07605e-05 0.00204294 -0.000570092
2.35304e-05 0.00204239 -0.000569284
2.46161e-05 0.00204092 -0.000567963
2.31768e-05 0.00203788 -0.000565896
1.80633e-05 0.0020322 -0.00056273
8.03718e-06 0.00202072 -0.000557737
-4.05106e-06 0.00197619 -0.000545233
-2.02553e-06 0.00158963 -0.000443505
2.5084e-05 0.00239408 -0.000482744
2.92798e-05 0.00302199 -0.000597307
2.30739e-05 0.0030909 -0.000611656
1.52578e-05 0.00310281 -0.000616505
9.14064e-06 0.00310727 -0.000619163
5.52126e-06 0.00310964 -0.000620822
4.2886e-06 0.00311112 -0.000621931
5.0366e-06 0.00311219 -0.000622694
7.2861e-06 0.00311305 -0.000623202
1.05447e-05 0.00311379 -0.000623492
1.43107e-05 0.00311443 -0.000623567
1.80591e-05 0.00311489 -0.000623393
2.12015e-05 0.00311502 -0.000622907
2.30346e-05 0.00311452 -0.000622007
2.26644e-05 0.00311289 -0.000620532
1.89001e-05 0.00310934 -0.00061822
1.00997e-05 0.00310254 -0.000614696
-5.38559e-06 0.00308772 -0.000609231
-2.23472e-05 0.00301767 -0.000595908
-1.11736e-05 0.00239388 -0.000485789
3.50395e-05 0.00329443 -0.00053926
4.31224e-05 0.00420772 -0.000665591
3.62234e-05 0.00430756 -0.00068122
2.61397e-05 0.00432213 -0.000686619
1.7594e-05 0.00432686 -0.00068962
1.18845e-05 0.00432921 -0.000691496
9.01302e-06 0.0043306 -0.000692744
8.54625e-06 0.00433158 -0.000693599
9.92799e-06 0.0043324 -0.000694171
1.25719e-05 0.00433319 -0.0006945
1.58777e-05 0.00433396 -0.000694587
1.92009e-05 0.00433463 -0.000694397
2.18062e-05 0.00433502 -0.000693861
2.28079e-05 0.00433479 -0.000692858
2.10717e-05 0.00433335 -0.000691203
1.50895e-05 0.00432983 -0.0006886
2.8285e-06 0.00432267 -0.000684636
-1.75561e-05 0.00430509 -0.000678562
-3.84164e-05 0.00420416 -0.000664022
-1.92082e-05 0.00329516 -0.000542241
4.37799e-05 0.00430621 -0.000610839
5.52762e-05 0.00555367 -0.00075268
4.76457e-05 0.00569033 -0.000770044
3.54055e-05 0.00570738 -0.000776101
2.45983e-05 0.00571189 -0.000779487
1.69869e-05 0.00571386 -0.0007816
1.2679e-05 0.00571489 -0.000783002
1.12086e-05 0.00571558 -0.000783963
1.19413e-05 0.00571624 -0.000784606
1.41982e-05 0.005717 -0.000784981
1.7274e-05 0.00571789 -0.000785088
2.0399e-05 0.00571884 -0.000784891
2.26906e-05 0.00571964 -0.000784311
2.30796e-05 0.00571992 -0.0007832
2.01911e-05 0.00571905 -0.000781345
1.22198e-05 0.00571604 -0.000778411
-3.2164e-06 0.00570916 -0.000773929
-2.80936e-05 0.00568908 -0.000767097
-5.24569e-05 0.00555123 -0.00075087
-2.62284e-05 0.00430773 -0.000613793
5.18672e-05 0.00545335 -0.000698578
6.63035e-05 0.00708822 -0.000860046
5.77142e-05 0.00726818 -0.000879655
4.32515e-05 0.00728771 -0.000886484
3.02135e-05 0.00729156 -0.000890297
2.0801e-05 0.00729279 -0.000892664
1.52088e-05 0.00729318 -0.000894227
1.29279e-05 0.00729339 -0.000895297
1.32384e-05 0.00729374 -0.000896017
1.53615e-05 0.0072944 -0.000896445
1.84801e-05 0.00729541 -0.000896583
2.16947e-05 0.00729671 -0.000896393
2.39701e-05 0.00729809 -0.000895778
2.40414e-05 0.00729915 -0.000894564
2.02798e-05 0.00729922 -0.000892503
1.05618e-05 0.00729723 -0.000889204
-7.8705e-06 0.00729116 -0.000884128
-3.71516e-05 0.00726854 -0.000876362
-6.51473e-05 0.00708706 -0.000857916
-3.25736e-05 0.00545553 -0.00070155
5.97957e-05 0.00676609 -0.000804423
7.67293e-05 0.0088487 -0.000990226
6.67822e-05 0.0090792 -0.00101267
4.98443e-05 0.00910131 -0.0010204
3.44702e-05 0.00910403 -0.00102468
2.32709e-05 0.00910411 -0.0010273
1.65018e-05 0.00910354 -0.00102902
1.3591e-05 0.00910303 -0.0010302
1.3719e-05 0.00910292 -0.00103099
1.59937e-05 0.0091034 -0.00103148
1.94796e-05 0.00910452 -0.00103167
2.31423e-05 0.00910626 -0.0010315
2.5779e-05 0.00910841 -0.00103087
2.59071e-05 0.00911057 -0.00102958
2.16117e-05 0.00911202 -0.00102731
1.039e-05 0.00911157 -0.00102362
-1.0977e-05 0.00910683 -0.00101787
-4.4881e-05 0.0090815 -0.00100898
-7.70662e-05 0.00884895 -0.000987699
-3.85331e-05 0.00676883 -0.00080747
6.7906e-05 0.00828069 -0.000931595
8.68664e-05 0.0108813 -0.00114739
7.49691e-05 0.0111705 -0.00117337
5.51239e-05 0.0111952 -0.00118215
3.71915e-05 0.0111962 -0.00118691
2.41621e-05 0.0111946 -0.00118978
1.63109e-05 0.0111927 -0.00119164
1.29696e-05 0.0111912 -0.00119291
1.31942e-05 0.0111904 -0.00119378
1.59643e-05 0.0111906 -0.00119434
2.02205e-05 0.0111918 -0.00119458
2.47858e-05 0.0111941 -0.00119447
2.82745e-05 0.0111973 -0.00119386
2.89572e-05 0.0112009 -0.00119251
2.45727e-05 0.0112043 -0.00119008
1.21349e-05 0.011206 -0.001186
-1.21809e-05 0.0112033 -0.00117949
-5.12016e-05 0.0111751 -0.00116924
-8.85328e-05 0.0108831 -0.00114439
-4.42664e-05 0.00828388 -0.000934776
7.63637e-05 0.0100415 -0.0010853
9.67221e-05 0.0132438 -0.00133826
8.20255e-05 0.0136006 -0.00136864
5.86575e-05 0.0136279 -0.00137862
3.78561e-05 0.0136264 -0.00138387
2.29403e-05 0.0136224 -0.00138695
1.41377e-05 0.0136187 -0.00138891
1.06302e-05 0.0136157 -0.00139025
1.13153e-05 0.013614 -0.00139117
1.50289e-05 0.0136137 -0.0013918
2.05819e-05 0.013615 -0.00139212
2.66516e-05 0.0136179 -0.00139209
3.16575e-05 0.0136223 -0.00139155
3.35835e-05 0.013628 -0.00139023
2.97379e-05 0.013634 -0.00138769
1.65052e-05 0.0136389 -0.00138325
-1.07692e-05 0.0136392 -0.00137592
-5.56342e-05 0.0136083 -0.00136404
-9.94929e-05 0.0132474 -0.00133471
-4.97464e-05 0.010045 -0.00108868
8.50907e-05 0.0121054 -0.00127407
0.000105842 0.0160106 -0.00157378
8.7137e-05 0.0164455 -0.0016097
5.94326e-05 0.0164746 -0.00162103
3.54104e-05 0.0164694 -0.00162672
1.86124e-05 0.0164621 -0.00162994
9.10468e-06 0.0164557 -0.00163193
5.83723e-06 0.0164508 -0.00163327
7.50148e-06 0.0164478 -0.00163423
1.27746e-05 0.0164468 -0.00163491
2.03362e-05 0.016448 -0.00163533
2.87229e-05 0.0164517 -0.00163544
3.6161e-05 0.0164578 -0.00163505
4.03105e-05 0.016466 -0.00163386
3.79512e-05 0.0164757 -0.00163133
2.46401e-05 0.0164851 -0.00162661
-5.4497e-06 0.01649 -0.00161844
-5.70471e-05 0.0164571 -0.00160464
-0.000109322 0.0160167 -0.00156958
-5.46611e-05 0.012109 -0.00127773
9.36076e-05 0.0145507 -0.00151241
0.00011301 0.019284 -0.00187248
8.85624e-05 0.0198086 -0.00191545
5.55185e-05 0.0198382 -0.00192823
2.79825e-05 0.0198272 -0.00193423
9.50257e-06 0.0198152 -0.00193742
-2.11765e-07 0.0198051 -0.00193932
-2.5691e-06 0.0197975 -0.00194059
8.51525e-07 0.0197927 -0.00194151
8.55201e-06 0.0197906 -0.00194223
1.90938e-05 0.0197917 -0.00194276
3.09009e-05 0.0197962 -0.00194305
4.20362e-05 0.0198043 -0.00194293
4.98284e-05 0.0198159 -0.00194203
5.04336e-05 0.0198306 -0.00193972
3.83233e-05 0.0198467 -0.00193493
5.98098e-06 0.0198588 -0.00192598
-5.32532e-05 0.0198256 -0.00190998
-0.000116481 0.0192935 -0.00186751
-5.82404e-05 0.0145543 -0.00151646
0.000100712 0.0174932 -0.00182604
0.000115662 0.023213 -0.00226694
8.29793e-05 0.0238403 -0.00231903
4.34723e-05 0.0238674 -0.00233326
1.24071e-05 0.0238478 -0.00233927
-7.10086e-06 0.0238289 -0.00234216
-1.60326e-05 0.0238138 -0.00234375
-1.63454e-05 0.0238026 -0.00234479
-9.97458e-06 0.0237952 -0.00234559
1.3927e-06 0.0237917 -0.00234629
1.62378e-05 0.0237924 -0.00234693
3.29489e-05 0.0237977 -0.00234748
4.95154e-05 0.0238081 -0.00234777
6.29993e-05 0.0238242 -0.00234741
6.88858e-05 0.0238457 -0.00234565
6.02555e-05 0.0238712 -0.00234118
2.71381e-05 0.0238947 -0.00233175
-4.03168e-05 0.0238651 -0.00231332
-0.000117846 0.0232278 -0.00226109
-5.89231e-05 0.0174964 -0.00183062
0.000103717 0.0211186 -0.00226326
0.000108632 0.0280323 -0.00281786
6.41694e-05 0.0287761 -0.00288196
1.72208e-05 0.0287951 -0.00289732
-1.66234e-05 0.0287622 -0.00290273
-3.55471e-05 0.0287337 -0.00290484
-4.17812e-05 0.0287118 -0.00290578
-3.81103e-05 0.0286958 -0.00290635
-2.69316e-05 0.0286851 -0.00290687
-1.01137e-05 0.0286796 -0.00290746
1.08243e-05 0.0286795 -0.00290819
3.4393e-05 0.0286855 -0.00290907
5.87106e-05 0.0286986 -0.00290993
8.07873e-05 0.0287199 -0.00291044
9.55412e-05 0.0287503 -0.00290977
9.43932e-05 0.0287893 -0.00290632
6.38608e-05 0.0288309 -0.00289714
-1.12421e-05 0.0288121 -0.0028764
-0.000107304 0.0280556 -0.00281108
-5.3652e-05 0.021121 -0.00226853
9.66589e-05 0.0257506 -0.00292148
8.13722e-05 0.034142 -0.00364643
2.02947e-05 0.0350149 -0.00372653
-3.41167e-05 0.0350158 -0.00374192
-6.81204e-05 0.0349629 -0.00374557
-8.28681e-05 0.0349209 -0.00374607
-8.27447e-05 0.0348901 -0.00374585
-7.17434e-05 0.0348681 -0.0037456
-5.2826e-05 0.0348533 -0.0037456
-2.79796e-05 0.0348451 -0.00374593
1.44406e-06 0.0348438 -0.00374669
3.43587e-05 0.0348502 -0.00374791
6.9399e-05 0.0348658 -0.00374954
0.000104023 0.034893 -0.00375134
0.000133048 0.0349344 -0.00375253
0.000146274 0.0349921 -0.00375135
0.000125477 0.0350614 -0.003744
4.65295e-05 0.0350672 -0.00372198
-7.26628e-05 0.0341793 -0.00363894
-3.63314e-05 0.0257515 -0.00292759
6.57827e-05 0.0320104 -0.00401503
1.14825e-05 0.0422898 -0.00501577
-7.19785e-05 0.0432986 -0.00511698
-0.000130617 0.0432637 -0.00512963
-0.00015777 0.0431814 -0.00512933
-0.000160672 0.0431219 -0.00512695
-0.000147224 0.0430802 -0.00512477
-0.000123051 0.0430511 -0.00512321
-9.1679e-05 0.0430314 -0.00512233
-5.50161e-05 0.0430201 -0.00512217
-1.39257e-05 0.0430171 -0.00512281
3.1366e-05 0.0430232 -0.00512435
8.06707e-05 0.0430407 -0.00512691
0.00013286 0.0430735 -0.00513045
0.000183893 0.0431271 -0.00513453
0.000223005 0.0432085 -0.00513755
0.000226563 0.0433189 -0.00513515
0.000155946 0.0433734 -0.00511519
1.13787e-05 0.0423501 -0.00500858
5.68937e-06 0.0320089 -0.00402204
-2.27838e-05 0.0412124 -0.00605483
-0.000151288 0.0540109 -0.0075401
-0.000260695 0.0551442 -0.00766757
-0.000310707 0.0550452 -0.00767116
-0.000313777 0.054923 -0.0076632
-0.000288693 0.0548429 -0.00765605
-0.000248579 0.0547896 -0.00765084
-0.000200868 0.0547532 -0.00764728
-0.000149267 0.0547289 -0.00764506
-9.50798e-05 0.0547144 -0.00764407
-3.80747e-05 0.0547092 -0.00764435
2.30774e-05 0.0547142 -0.00764609
9.03704e-05 0.0547321 -0.00764959
0.00016569 0.0547684 -0.00765525
0.00024875 0.0548325 -0.00766332
0.000331864 0.0549394 -0.00767324
0.000388596 0.0551048 -0.00768131
0.000359773 0.0552467 -0.00767183
0.000200672 0.0541078 -0.00753652
0.000100336 0.0412077 -0.0060627
-0.000260121 0.056259 -0.0101909
-0.000527401 0.072515 -0.0125162
-0.000649723 0.0737109 -0.0126642
-0.00065087 0.0735129 -0.0126458
-0.000588645 0.0733467 -0.0126247
-0.000501546 0.0732489 -0.0126104
-0.000408906 0.0731872 -0.0126009
-0.000318903 0.0731463 -0.0125946
-0.000233931 0.0731192 -0.0125905
-0.000153338 0.0731027 -0.0125882
-7.4624e-05 0.0730957 -0.0125878
6.16491e-06 0.0730988 -0.0125895
9.44867e-05 0.0731147 -0.0125938
0.000197395 0.0731497 -0.0126015
0.000322759 0.0732167 -0.0126143
0.000474762 0.0733406 -0.0126339
0.000637774 0.0735624 -0.0126605
0.000737412 0.0738358 -0.0126795
0.000628457 0.0726609 -0.0125244
0.000314229 0.0562535 -0.0101999
-0.000927904 0.0804428 -0.015738
-0.00142431 0.10022 -0.018431
-0.00146433 0.101259 -0.0184817
-0.00129586 0.100965 -0.0184156
-0.00106998 0.100783 -0.0183753
-0.000849745 0.100688 -0.0183522
-0.000655724 0.100631 -0.0183376
-0.000491005 0.100594 -0.018328
-0.000351941 0.10057 -0.0183216
-0.000232376 0.100556 -0.0183179
-0.000125076 0.100549 -0.0183166
-2.17737e-05 0.10055 -0.0183179
8.77142e-05 0.100562 -0.0183225
0.000217347 0.100588 -0.0183318
0.00038792 0.100643 -0.0183488
0.000630307 0.100754 -0.0183789
0.00097967 0.100986 -0.0184318
0.00141717 0.101371 -0.0185125
0.00164501 0.100384 -0.0184643
0.000822503 0.0804499 -0.0157505
-0.0027262 0.0402214 0.0550286
-0.00319964 0.0501102 0.0630589
-0.00272651 0.0506294 0.0636801
-0.00211126 0.0504824 0.0638164
-0.00157642 0.0503917 0.0638695
-0.00115634 0.0503439 0.0638973
-0.000837155 0.0503154 0.0639147
-0.000596237 0.0502971 0.0639263
-0.000412476 0.0502852 0.0639341
-0.000268301 0.0502779 0.0639388
-0.000149163 0.0502746 0.0639409
-4.2133e-05 0.0502752 0.0639402
6.62279e-05 0.0502809 0.0639361
0.000193441 0.0502942 0.0639271
0.000368612 0.0503214 0.0639096
0.000650983 0.050377 0.0638755
0.00117869 0.0504929 0.0638047
0.00224771 0.0506855 0.0636346
0.00383895 0.0501919 0.0629832
0.00191947 0.0402249 0.0550203
-1.19005e-05 0.000367593 -0.000849491
-2.13249e-05 0.000451835 -0.00105289
-2.52369e-05 0.000460748 -0.00107931
-2.54792e-05 0.000462958 -0.00108724
-2.3347e-05 0.000463973 -0.00109138
-1.96377e-05 0.000464563 -0.00109397
-1.48694e-05 0.000464961 -0.00109574
-9.40239e-06 0.000465259 -0.00109698
-3.49965e-06 0.000465499 -0.00109782
2.61514e-06 0.000465693 -0.00109832
8.74037e-06 0.000465845 -0.00109846
1.46757e-05 0.00046593 -0.0010982
2.02338e-05 0.000465919 -0.00109744
2.524e-05 0.000465757 -0.001096
2.9532e-05 0.000465331 -0.00109364
3.30032e-05 0.000464458 -0.00108997
3.56455e-05 0.000462822 -0.00108435
3.74679e-05 0.000459682 -0.00107522
3.66245e-05 0.000449843 -0.00105005
1.83123e-05 0.00036487 -0.000853083
-8.35431e-06 0.00102952 -0.00109145
-1.65399e-05 0.00129325 -0.0013842
-2.12952e-05 0.00132191 -0.00142099
-2.28871e-05 0.00132787 -0.00143106
-2.18951e-05 0.00133037 -0.00143622
-1.8879e-05 0.00133177 -0.00143945
-1.43179e-05 0.00133269 -0.00144165
-8.61124e-06 0.00133336 -0.00144318
-2.09704e-06 0.0013339 -0.00144422
4.91756e-06 0.00133434 -0.00144483
1.21288e-05 0.00133467 -0.001445
1.92327e-05 0.00133487 -0.00144467
2.59272e-05 0.00133486 -0.00144373
3.18843e-05 0.00133449 -0.00144197
3.67542e-05 0.00133348 -0.00143909
4.01698e-05 0.00133139 -0.00143458
4.1736e-05 0.00132742 -0.00142763
4.09987e-05 0.00131936 -0.00141599
3.67244e-05 0.00128921 -0.00138053
1.83622e-05 0.00102701 -0.00109557
5.00792e-06 0.00188208 -0.00119719
8.19942e-07 0.00240569 -0.00151771
-5.19541e-06 0.00246238 -0.001558
-9.55584e-06 0.00247228 -0.0015692
-1.14119e-05 0.00247608 -0.00157497
-1.08599e-05 0.00247813 -0.00157858
-8.27196e-06 0.00247943 -0.00158102
-4.07058e-06 0.00248038 -0.00158273
1.33373e-06 0.00248113 -0.00158388
7.53453e-06 0.00248176 -0.00158456
1.41343e-05 0.00248227 -0.00158475
2.07206e-05 0.00248261 -0.00158439
2.6854e-05 0.00248266 -0.00158334
3.20277e-05 0.00248218 -0.00158139
3.56384e-05 0.00248074 -0.00157819
3.69187e-05 0.00247766 -0.00157316
3.47934e-05 0.00247174 -0.00156539
2.77926e-05 0.00245894 -0.00155244
1.61704e-05 0.00240066 -0.00151351
8.08522e-06 0.00188058 -0.00120127
1.82561e-05 0.00288043 -0.00132443
1.84875e-05 0.00373716 -0.00167515
1.13595e-05 0.00382954 -0.00171921
4.18161e-06 0.00384304 -0.0017317
-6.25024e-07 0.0038476 -0.0017382
-2.6394e-06 0.00384995 -0.00174226
-2.10913e-06 0.00385138 -0.00174501
5.17777e-07 0.00385239 -0.00174693
4.74884e-06 0.00385322 -0.00174821
1.00803e-05 0.00385396 -0.00174897
1.60087e-05 0.00385461 -0.00174919
2.20001e-05 0.00385513 -0.00174879
2.74602e-05 0.00385534 -0.00174763
3.16853e-05 0.00385495 -0.00174546
3.38023e-05 0.00385341 -0.00174187
3.26447e-05 0.00384987 -0.00173621
2.65217e-05 0.00384284 -0.00172748
1.32243e-05 0.00382612 -0.00171302
-4.77202e-06 0.00373225 -0.00167039
-2.38601e-06 0.00288001 -0.00132848
2.93382e-05 0.0040186 -0.0014872
3.3514e-05 0.00527946 -0.0018773
2.54524e-05 0.00541555 -0.00192615
1.57773e-05 0.00543228 -0.00194016
8.3495e-06 0.00543701 -0.00194749
4.08684e-06 0.00543924 -0.00195208
2.85544e-06 0.00544049 -0.00195518
4.17911e-06 0.00544135 -0.00195732
7.48794e-06 0.0054421 -0.00195877
1.21855e-05 0.00544285 -0.00195963
1.76627e-05 0.00544363 -0.00195989
2.32574e-05 0.00544437 -0.00195946
2.82244e-05 0.00544488 -0.00195819
3.16651e-05 0.00544482 -0.00195577
3.24468e-05 0.00544357 -0.00195173
2.90552e-05 0.00544018 -0.00194535
1.93138e-05 0.00543294 -0.00193548
5.62497e-07 0.00541295 -0.00191923
-2.24174e-05 0.00527546 -0.00187187
-1.12087e-05 0.00401913 -0.00149126
3.85226e-05 0.00531157 -0.00168865
4.59231e-05 0.00704923 -0.00212861
3.68971e-05 0.00723763 -0.00218346
2.49308e-05 0.00725743 -0.00219924
1.51713e-05 0.00726176 -0.00220751
8.97088e-06 0.00726345 -0.00221267
6.29171e-06 0.00726421 -0.00221613
6.62257e-06 0.0072647 -0.00221853
9.31608e-06 0.0072652 -0.00222016
1.3684e-05 0.00726588 -0.00222114
1.90078e-05 0.00726676 -0.00222145
2.44985e-05 0.0072678 -0.00222102
2.92635e-05 0.00726877 -0.00221964
3.22108e-05 0.00726931 -0.00221696
3.19628e-05 0.00726876 -0.00221245
2.66901e-05 0.0072661 -0.00220526
1.37979e-05 0.00725942 -0.00219408
-9.69516e-06 0.00723644 -0.00217571
-3.69066e-05 0.00704656 -0.00212238
-1.84533e-05 0.00531292 -0.00169278
4.64513e-05 0.00678623 -0.00193247
5.63595e-05 0.00907864 -0.00243412
4.61347e-05 0.00932872 -0.0024964
3.18876e-05 0.00935163 -0.00251423
1.9931e-05 0.00935501 -0.00252353
1.20015e-05 0.00935574 -0.00252928
8.12748e-06 0.00935572 -0.00253313
7.75032e-06 0.00935559 -0.00253579
1.01375e-05 0.00935569 -0.00253761
1.4503e-05 0.00935621 -0.00253872
2.0015e-05 0.00935719 -0.00253912
2.57582e-05 0.00935859 -0.00253872
3.06894e-05 0.0093602 -0.00253726
3.35216e-05 0.00936163 -0.00253434
3.26275e-05 0.0093622 -0.00252934
2.58495e-05 0.00936083 -0.00252128
1.01756e-05 0.00935535 -0.00250864
-1.76872e-05 0.00932936 -0.00248774
-4.90025e-05 0.00907755 -0.00242697
-2.45012e-05 0.00678825 -0.00193674
5.36758e-05 0.0084776 -0.00222434
6.5394e-05 0.0114118 -0.00280151
5.35482e-05 0.0117338 -0.00287289
3.68368e-05 0.01176 -0.0028931
2.26734e-05 0.0117619 -0.00290348
1.31283e-05 0.0117612 -0.00290984
8.26186e-06 0.01176 -0.00291406
7.44547e-06 0.011759 -0.00291698
9.8445e-06 0.0117586 -0.00291898
1.45648e-05 0.0117588 -0.00292024
2.06597e-05 0.0117599 -0.00292076
2.70832e-05 0.0117617 -0.00292043
3.26316e-05 0.0117642 -0.00291894
3.58137e-05 0.0117668 -0.00291585
3.47252e-05 0.011769 -0.00291039
2.68296e-05 0.0117695 -0.00290142
8.64141e-06 0.0117658 -0.00288714
-2.35401e-05 0.0117366 -0.00286325
-5.933e-05 0.0114124 -0.00279328
-2.9665e-05 0.0084802 -0.00222885
6.05294e-05 0.0104282 -0.00257286
7.33051e-05 0.0141042 -0.00324228
5.92107e-05 0.0145095 -0.0033248
3.96725e-05 0.0145391 -0.00334771
2.31814e-05 0.0145389 -0.00335924
1.20825e-05 0.0145362 -0.00336616
6.41895e-06 0.0145335 -0.0033707
5.45599e-06 0.0145313 -0.00337383
8.22924e-06 0.01453 -0.00337602
1.37237e-05 0.0145299 -0.00337744
2.08749e-05 0.014531 -0.00337812
2.85031e-05 0.0145334 -0.00337791
3.52368e-05 0.0145369 -0.00337649
3.9359e-05 0.0145412 -0.00337331
3.86403e-05 0.0145455 -0.00336749
3.00847e-05 0.0145486 -0.00335763