# vtk DataFile Version 2.0 
Visualization 
ASCII 
DATASET STRUCTURED_GRID 
DIMENSIONS 21 21 11
POINTS 4851 float
-0.1 -0.1 -0.1
0 -0.1 -0.1
0.1 -0.1 -0.1
0.2 -0.1 -0.1
0.3 -0.1 -0.1
0.4 -0.1 -0.1
0.5 -0.1 -0.1
0.6 -0.1 -0.1
0.7 -0.1 -0.1
0.8 -0.1 -0.1
0.9 -0.1 -0.1
1 -0.1 -0.1
1.1 -0.1 -0.1
1.2 -0.1 -0.1
1.3 -0.1 -0.1
1.4 -0.1 -0.1
1.5 -0.1 -0.1
1.6 -0.1 -0.1
1.7 -0.1 -0.1
1.8 -0.1 -0.1
1.9 -0.1 -0.1
-0.1 0 -0.1
0 0 -0.1
0.1 0 -0.1
0.2 0 -0.1
0.3 0 -0.1
0.4 0 -0.1
0.5 0 -0.1
0.6 0 -0.1
0.7 0 -0.1
0.8 0 -0.1
0.9 0 -0.1
1 0 -0.1
1.1 0 -0.1
1.2 0 -0.1
1.3 0 -0.1
1.4 0 -0.1
1.5 0 -0.1
1.6 0 -0.1
1.7 0 -0.1
1.8 0 -0.1
1.9 0 -0.1
-0.1 0.1 -0.1
0 0.1 -0.1
0.1 0.1 -0.1
0.2 0.1 -0.1
0.3 0.1 -0.1
0.4 0.1 -0.1
0.5 0.1 -0.1
0.6 0.1 -0.1
0.7 0.1 -0.1
0.8 0.1 -0.1
0.9 0.1 -0.1
1 0.1 -0.1
1.1 0.1 -0.1
1.2 0.1 -0.1
1.3 0.1 -0.1
1.4 0.1 -0.1
1.5 0.1 -0.1
1.6 0.1 -0.1
1.7 0.1 -0.1
1.8 0.1 -0.1
1.9 0.1 -0.1
-0.1 0.2 -0.1
0 0.2 -0.1
0.1 0.2 -0.1
0.2 0.2 -0.1
0.3 0.2 -0.1
0.4 0.2 -0.1
0.5 0.2 -0.1
0.6 0.2 -0.1
0.7 0.2 -0.1
0.8 0.2 -0.1
0.9 0.2 -0.1
1 0.2 -0.1
1.1 0.2 -0.1
1.2 0.2 -0.1
1.3 0.2 -0.1
1.4 0.2 -0.1
1.5 0.2 -0.1
1.6 0.2 -0.1
1.7 0.2 -0.1
1.8 0.2 -0.1
1.9 0.2 -0.1
-0.1 0.3 -0.1
0 0.3 -0.1
0.1 0.3 -0.1
0.2 0.3 -0.1
0.3 0.3 -0.1
0.4 0.3 -0.1
0.5 0.3 -0.1
0.6 0.3 -0.1
0.7 0.3 -0.1
0.8 0.3 -0.1
0.9 0.3 -0.1
1 0.3 -0.1
1.1 0.3 -0.1
1.2 0.3 -0.1
1.3 0.3 -0.1
1.4 0.3 -0.1
1.5 0.3 -0.1
1.6 0.3 -0.1
1.7 0.3 -0.1
1.8 0.3 -0.1
1.9 0.3 -0.1
-0.1 0.4 -0.1
0 0.4 -0.1
0.1 0.4 -0.1
0.2 0.4 -0.1
0.3 0.4 -0.1
0.4 0.4 -0.1
0.5 0.4 -0.1
0.6 0.4 -0.1
0.7 0.4 -0.1
0.8 0.4 -0.1
0.9 0.4 -0.1
1 0.4 -0.1
1.1 0.4 -0.1
1.2 0.4 -0.1
1.3 0.4 -0.1
1.4 0.4 -0.1
1.5 0.4 -0.1
1.6 0.4 -0.1
1.7 0.4 -0.1
1.8 0.4 -0.1
1.9 0.4 -0.1
-0.1 0.5 -0.1
0 0.5 -0.1
0.1 0.5 -0.1
0.2 0.5 -0.1
0.3 0.5 -0.1
0.4 0.5 -0.1
0.5 0.5 -0.1
0.6 0.5 -0.1
0.7 0.5 -0.1
0.8 0.5 -0.1
0.9 0.5 -0.1
1 0.5 -0.1
1.1 0.5 -0.1
1.2 0.5 -0.1
1.3 0.5 -0.1
1.4 0.5 -0.1
1.5 0.5 -0.1
1.6 0.5 -0.1
1.7 0.5 -0.1
1.8 0.5 -0.1
1.9 0.5 -0.1
-0.1 0.6 -0.1
0 0.6 -0.1
0.1 0.6 -0.1
0.2 0.6 -0.1
0.3 0.6 -0.1
0.4 0.6 -0.1
0.5 0.6 -0.1
0.6 0.6 -0.1
0.7 0.6 -0.1
0.8 0.6 -0.1
0.9 0.6 -0.1
1 0.6 -0.1
1.1 0.6 -0.1
1.2 0.6 -0.1
1.3 0.6 -0.1
1.4 0.6 -0.1
1.5 0.6 -0.1
1.6 0.6 -0.1
1.7 0.6 -0.1
1.8 0.6 -0.1
1.9 0.6 -0.1
-0.1 0.7 -0.1
0 0.7 -0.1
0.1 0.7 -0.1
0.2 0.7 -0.1
0.3 0.7 -0.1
0.4 0.7 -0.1
0.5 0.7 -0.1
0.6 0.7 -0.1
0.7 0.7 -0.1
0.8 0.7 -0.1
0.9 0.7 -0.1
1 0.7 -0.1
1.1 0.7 -0.1
1.2 0.7 -0.1
1.3 0.7 -0.1
1.4 0.7 -0.1
1.5 0.7 -0.1
1.6 0.7 -0.1
1.7 0.7 -0.1
1.8 0.7 -0.1
1.9 0.7 -0.1
-0.1 0.8 -0.1
0 0.8 -0.1
0.1 0.8 -0.1
0.2 0.8 -0.1
0.3 0.8 -0.1
0.4 0.8 -0.1
0.5 0.8 -0.1
0.6 0.8 -0.1
0.7 0.8 -0.1
0.8 0.8 -0.1
0.9 0.8 -0.1
1 0.8 -0.1
1.1 0.8 -0.1
1.2 0.8 -0.1
1.3 0.8 -0.1
1.4 0.8 -0.1
1.5 0.8 -0.1
1.6 0.8 -0.1
1.7 0.8 -0.1
1.8 0.8 -0.1
1.9 0.8 -0.1
-0.1 0.9 -0.1
0 0.9 -0.1
0.1 0.9 -0.1
0.2 0.9 -0.1
0.3 0.9 -0.1
0.4 0.9 -0.1
0.5 0.9 -0.1
0.6 0.9 -0.1
0.7 0.9 -0.1
0.8 0.9 -0.1
0.9 0.9 -0.1
1 0.9 -0.1
1.1 0.9 -0.1
1.2 0.9 -0.1
1.3 0.9 -0.1
1.4 0.9 -0.1
1.5 0.9 -0.1
1.6 0.9 -0.1
1.7 0.9 -0.1
1.8 0.9 -0.1
1.9 0.9 -0.1
-0.1 1 -0.1
0 1 -0.1
0.1 1 -0.1
0.2 1 -0.1
0.3 1 -0.1
0.4 1 -0.1
0.5 1 -0.1
0.6 1 -0.1
0.7 1 -0.1
0.8 1 -0.1
0.9 1 -0.1
1 1 -0.1
1.1 1 -0.1
1.2 1 -0.1
1.3 1 -0.1
1.4 1 -0.1
1.5 1 -0.1
1.6 1 -0.1
1.7 1 -0.1
1.8 1 -0.1
1.9 1 -0.1
-0.1 1.1 -0.1
0 1.1 -0.1
0.1 1.1 -0.1
0.2 1.1 -0.1
0.3 1.1 -0.1
0.4 1.1 -0.1
0.5 1.1 -0.1
0.6 1.1 -0.1
0.7 1.1 -0.1
0.8 1.1 -0.1
0.9 1.1 -0.1
1 1.1 -0.1
1.1 1.1 -0.1
1.2 1.1 -0.1
1.3 1.1 -0.1
1.4 1.1 -0.1
1.5 1.1 -0.1
1.6 1.1 -0.1
1.7 1.1 -0.1
1.8 1.1 -0.1
1.9 1.1 -0.1
-0.1 1.2 -0.1
0 1.2 -0.1
0.1 1.2 -0.1
0.2 1.2 -0.1
0.3 1.2 -0.1
0.4 1.2 -0.1
0.5 1.2 -0.1
0.6 1.2 -0.1
0.7 1.2 -0.1
0.8 1.2 -0.1
0.9 1.2 -0.1
1 1.2 -0.1
1.1 1.2 -0.1
1.2 1.2 -0.1
1.3 1.2 -0.1
1.4 1.2 -0.1
1.5 1.2 -0.1
1.6 1.2 -0.1
1.7 1.2 -0.1
1.8 1.2 -0.1
1.9 1.2 -0.1
-0.1 1.3 -0.1
0 1.3 -0.1
0.1 1.3 -0.1
0.2 1.3 -0.1
0.3 1.3 -0.1
0.4 1.3 -0.1
0.5 1.3 -0.1
0.6 1.3 -0.1
0.7 1.3 -0.1
0.8 1.3 -0.1
0.9 1.3 -0.1
1 1.3 -0.1
1.1 1.3 -0.1
1.2 1.3 -0.1
1.3 1.3 -0.1
1.4 1.3 -0.1
1.5 1.3 -0.1
1.6 1.3 -0.1
1.7 1.3 -0.1
1.8 1.3 -0.1
1.9 1.3 -0.1
-0.1 1.4 -0.1
0 1.4 -0.1
0.1 1.4 -0.1
0.2 1.4 -0.1
0.3 1.4 -0.1
0.4 1.4 -0.1
0.5 1.4 -0.1
0.6 1.4 -0.1
0.7 1.4 -0.1
0.8 1.4 -0.1
0.9 1.4 -0.1
1 1.4 -0.1
1.1 1.4 -0.1
1.2 1.4 -0.1
1.3 1.4 -0.1
1.4 1.4 -0.1
1.5 1.4 -0.1
1.6 1.4 -0.1
1.7 1.4 -0.1
1.8 1.4 -0.1
1.9 1.4 -0.1
-0.1 1.5 -0.1
0 1.5 -0.1
0.1 1.5 -0.1
0.2 1.5 -0.1
0.3 1.5 -0.1
0.4 1.5 -0.1
0.5 1.5 -0.1
0.6 1.5 -0.1
0.7 1.5 -0.1
0.8 1.5 -0.1
0.9 1.5 -0.1
1 1.5 -0.1
1.1 1.5 -0.1
1.2 1.5 -0.1
1.3 1.5 -0.1
1.4 1.5 -0.1
1.5 1.5 -0.1
1.6 1.5 -0.1
1.7 1.5 -0.1
1.8 1.5 -0.1
1.9 1.5 -0.1
-0.1 1.6 -0.1
0 1.6 -0.1
0.1 1.6 -0.1
0.2 1.6 -0.1
0.3 1.6 -0.1
0.4 1.6 -0.1
0.5 1.6 -0.1
0.6 1.6 -0.1
0.7 1.6 -0.1
0.8 1.6 -0.1
0.9 1.6 -0.1
1 1.6 -0.1
1.1 1.6 -0.1
1.2 1.6 -0.1
1.3 1.6 -0.1
1.4 1.6 -0.1
1.5 1.6 -0.1
1.6 1.6 -0.1
1.7 1.6 -0.1
1.8 1.6 -0.1
1.9 1.6 -0.1
-0.1 1.7 -0.1
0 1.7 -0.1
0.1 1.7 -0.1
0.2 1.7 -0.1
0.3 1.7 -0.1
0.4 1.7 -0.1
0.5 1.7 -0.1
0.6 1.7 -0.1
0.7 1.7 -0.1
0.8 1.7 -0.1
0.9 1.7 -0.1
1 1.7 -0.1
1.1 1.7 -0.1
1.2 1.7 -0.1
1.3 1.7 -0.1
1.4 1.7 -0.1
1.5 1.7 -0.1
1.6 1.7 -0.1
1.7 1.7 -0.1
1.8 1.7 -0.1
1.9 1.7 -0.1
-0.1 1.8 -0.1
0 1.8 -0.1
0.1 1.8 -0.1
0.2 1.8 -0.1
0.3 1.8 -0.1
0.4 1.8 -0.1
0.5 1.8 -0.1
0.6 1.8 -0.1
0.7 1.8 -0.1
0.8 1.8 -0.1
0.9 1.8 -0.1
1 1.8 -0.1
1.1 1.8 -0.1
1.2 1.8 -0.1
1.3 1.8 -0.1
1.4 1.8 -0.1
1.5 1.8 -0.1
1.6 1.8 -0.1
1.7 1.8 -0.1
1.8 1.8 -0.1
1.9 1.8 -0.1
-0.1 1.9 -0.1
0 1.9 -0.1
0.1 1.9 -0.1
0.2 1.9 -0.1
0.3 1.9 -0.1
0.4 1.9 -0.1
0.5 1.9 -0.1
0.6 1.9 -0.1
0.7 1.9 -0.1
0.8 1.9 -0.1
0.9 1.9 -0.1
1 1.9 -0.1
1.1 1.9 -0.1
1.2 1.9 -0.1
1.3 1.9 -0.1
1.4 1.9 -0.1
1.5 1.9 -0.1
1.6 1.9 -0.1
1.7 1.9 -0.1
1.8 1.9 -0.1
1.9 1.9 -0.1
-0.1 -0.1 0
0 -0.1 0
0.1 -0.1 0
0.2 -0.1 0
0.3 -0.1 0
0.4 -0.1 0
0.5 -0.1 0
0.6 -0.1 0
0.7 -0.1 0
0.8 -0.1 0
0.9 -0.1 0
1 -0.1 0
1.1 -0.1 0
1.2 -0.1 0
1.3 -0.1 0
1.4 -0.1 0
1.5 -0.1 0
1.6 -0.1 0
1.7 -0.1 0
1.8 -0.1 0
1.9 -0.1 0
-0.1 0 0
0 0 0
0.1 0 0
0.2 0 0
0.3 0 0
0.4 0 0
0.5 0 0
0.6 0 0
0.7 0 0
0.8 0 0
0.9 0 0
1 0 0
1.1 0 0
1.2 0 0
1.3 0 0
1.4 0 0
1.5 0 0
1.6 0 0
1.7 0 0
1.8 0 0
1.9 0 0
-0.1 0.1 0
0 0.1 0
0.1 0.1 0
0.2 0.1 0
0.3 0.1 0
0.4 0.1 0
0.5 0.1 0
0.6 0.1 0
0.7 0.1 0
0.8 0.1 0
0.9 0.1 0
1 0.1 0
1.1 0.1 0
1.2 0.1 0
1.3 0.1 0
1.4 0.1 0
1.5 0.1 0
1.6 0.1 0
1.7 0.1 0
1.8 0.1 0
1.9 0.1 0
-0.1 0.2 0
0 0.2 0
0.1 0.2 0
0.2 0.2 0
0.3 0.2 0
0.4 0.2 0
0.5 0.2 0
0.6 0.2 0
0.7 0.2 0
0.8 0.2 0
0.9 0.2 0
1 0.2 0
1.1 0.2 0
1.2 0.2 0
1.3 0.2 0
1.4 0.2 0
1.5 0.2 0
1.6 0.2 0
1.7 0.2 0
1.8 0.2 0
1.9 0.2 0
-0.1 0.3 0
0 0.3 0
0.1 0.3 0
0.2 0.3 0
0.3 0.3 0
0.4 0.3 0
0.5 0.3 0
0.6 0.3 0
0.7 0.3 0
0.8 0.3 0
0.9 0.3 0
1 0.3 0
1.1 0.3 0
1.2 0.3 0
1.3 0.3 0
1.4 0.3 0
1.5 0.3 0
1.6 0.3 0
1.7 0.3 0
1.8 0.3 0
1.9 0.3 0
-0.1 0.4 0
0 0.4 0
0.1 0.4 0
0.2 0.4 0
0.3 0.4 0
0.4 0.4 0
0.5 0.4 0
0.6 0.4 0
0.7 0.4 0
0.8 0.4 0
0.9 0.4 0
1 0.4 0
1.1 0.4 0
1.2 0.4 0
1.3 0.4 0
1.4 0.4 0
1.5 0.4 0
1.6 0.4 0
1.7 0.4 0
1.8 0.4 0
1.9 0.4 0
-0.1 0.5 0
0 0.5 0
0.1 0.5 0
0.2 0.5 0
0.3 0.5 0
0.4 0.5 0
0.5 0.5 0
0.6 0.5 0
0.7 0.5 0
0.8 0.5 0
0.9 0.5 0
1 0.5 0
1.1 0.5 0
1.2 0.5 0
1.3 0.5 0
1.4 0.5 0
1.5 0.5 0
1.6 0.5 0
1.7 0.5 0
1.8 0.5 0
1.9 0.5 0
-0.1 0.6 0
0 0.6 0
0.1 0.6 0
0.2 0.6 0
0.3 0.6 0
0.4 0.6 0
0.5 0.6 0
0.6 0.6 0
0.7 0.6 0
0.8 0.6 0
0.9 0.6 0
1 0.6 0
1.1 0.6 0
1.2 0.6 0
1.3 0.6 0
1.4 0.6 0
1.5 0.6 0
1.6 0.6 0
1.7 0.6 0
1.8 0.6 0
1.9 0.6 0
-0.1 0.7 0
0 0.7 0
0.1 0.7 0
0.2 0.7 0
0.3 0.7 0
0.4 0.7 0
0.5 0.7 0
0.6 0.7 0
0.7 0.7 0
0.8 0.7 0
0.9 0.7 0
1 0.7 0
1.1 0.7 0
1.2 0.7 0
1.3 0.7 0
1.4 0.7 0
1.5 0.7 0
1.6 0.7 0
1.7 0.7 0
1.8 0.7 0
1.9 0.7 0
-0.1 0.8 0
0 0.8 0
0.1 0.8 0
0.2 0.8 0
0.3 0.8 0
0.4 0.8 0
0.5 0.8 0
0.6 0.8 0
0.7 0.8 0
0.8 0.8 0
0.9 0.8 0
1 0.8 0
1.1 0.8 0
1.2 0.8 0
1.3 0.8 0
1.4 0.8 0
1.5 0.8 0
1.6 0.8 0
1.7 0.8 0
1.8 0.8 0
1.9 0.8 0
-0.1 0.9 0
0 0.9 0
0.1 0.9 0
0.2 0.9 0
0.3 0.9 0
0.4 0.9 0
0.5 0.9 0
0.6 0.9 0
0.7 0.9 0
0.8 0.9 0
0.9 0.9 0
1 0.9 0
1.1 0.9 0
1.2 0.9 0
1.3 0.9 0
1.4 0.9 0
1.5 0.9 0
1.6 0.9 0
1.7 0.9 0
1.8 0.9 0
1.9 0.9 0
-0.1 1 0
0 1 0
0.1 1 0
0.2 1 0
0.3 1 0
0.4 1 0
0.5 1 0
0.6 1 0
0.7 1 0
0.8 1 0
0.9 1 0
1 1 0
1.1 1 0
1.2 1 0
1.3 1 0
1.4 1 0
1.5 1 0
1.6 1 0
1.7 1 0
1.8 1 0
1.9 1 0
-0.1 1.1 0
0 1.1 0
0.1 1.1 0
0.2 1.1 0
0.3 1.1 0
0.4 1.1 0
0.5 1.1 0
0.6 1.1 0
0.7 1.1 0
0.8 1.1 0
0.9 1.1 0
1 1.1 0
1.1 1.1 0
1.2 1.1 0
1.3 1.1 0
1.4 1.1 0
1.5 1.1 0
1.6 1.1 0
1.7 1.1 0
1.8 1.1 0
1.9 1.1 0
-0.1 1.2 0
0 1.2 0
0.1 1.2 0
0.2 1.2 0
0.3 1.2 0
0.4 1.2 0
0.5 1.2 0
0.6 1.2 0
0.7 1.2 0
0.8 1.2 0
0.9 1.2 0
1 1.2 0
1.1 1.2 0
1.2 1.2 0
1.3 1.2 0
1.4 1.2 0
1.5 1.2 0
1.6 1.2 0
1.7 1.2 0
1.8 1.2 0
1.9 1.2 0
-0.1 1.3 0
0 1.3 0
0.1 1.3 0
0.2 1.3 0
0.3 1.3 0
0.4 1.3 0
0.5 1.3 0
0.6 1.3 0
0.7 1.3 0
0.8 1.3 0
0.9 1.3 0
1 1.3 0
1.1 1.3 0
1.2 1.3 0
1.3 1.3 0
1.4 1.3 0
1.5 1.3 0
1.6 1.3 0
1.7 1.3 0
1.8 1.3 0
1.9 1.3 0
-0.1 1.4 0
0 1.4 0
0.1 1.4 0
0.2 1.4 0
0.3 1.4 0
0.4 1.4 0
0.5 1.4 0
0.6 1.4 0
0.7 1.4 0
0.8 1.4 0
0.9 1.4 0
1 1.4 0
1.1 1.4 0
1.2 1.4 0
1.3 1.4 0
1.4 1.4 0
1.5 1.4 0
1.6 1.4 0
1.7 1.4 0
1.8 1.4 0
1.9 1.4 0
-0.1 1.5 0
0 1.5 0
0.1 1.5 0
0.2 1.5 0
0.3 1.5 0
0.4 1.5 0
0.5 1.5 0
0.6 1.5 0
0.7 1.5 0
0.8 1.5 0
0.9 1.5 0
1 1.5 0
1.1 1.5 0
1.2 1.5 0
1.3 1.5 0
1.4 1.5 0
1.5 1.5 0
1.6 1.5 0
1.7 1.5 0
1.8 1.5 0
1.9 1.5 0
-0.1 1.6 0
0 1.6 0
0.1 1.6 0
0.2 1.6 0
0.3 1.6 0
0.4 1.6 0
0.5 1.6 0
0.6 1.6 0
0.7 1.6 0
0.8 1.6 0
0.9 1.6 0
1 1.6 0
1.1 1.6 0
1.2 1.6 0
1.3 1.6 0
1.4 1.6 0
1.5 1.6 0
1.6 1.6 0
1.7 1.6 0
1.8 1.6 0
1.9 1.6 0
-0.1 1.7 0
0 1.7 0
0.1 1.7 0
0.2 1.7 0
0.3 1.7 0
0.4 1.7 0
0.5 1.7 0
0.6 1.7 0
0.7 1.7 0
0.8 1.7 0
0.9 1.7 0
1 1.7 0
1.1 1.7 0
1.2 1.7 0
1.3 1.7 0
1.4 1.7 0
1.5 1.7 0
1.6 1.7 0
1.7 1.7 0
1.8 1.7 0
1.9 1.7 0
-0.1 1.8 0
0 1.8 0
0.1 1.8 0
0.2 1.8 0
0.3 1.8 0
0.4 1.8 0
0.5 1.8 0
0.6 1.8 0
0.7 1.8 0
0.8 1.8 0
0.9 1.8 0
1 1.8 0
1.1 1.8 0
1.2 1.8 0
1.3 1.8 0
1.4 1.8 0
1.5 1.8 0
1.6 1.8 0
1.7 1.8 0
1.8 1.8 0
1.9 1.8 0
-0.1 1.9 0
0 1.9 0
0.1 1.9 0
0.2 1.9 0
0.3 1.9 0
0.4 1.9 0
0.5 1.9 0
0.6 1.9 0
0.7 1.9 0
0.8 1.9 0
0.9 1.9 0
1 1.9 0
1.1 1.9 0
1.2 1.9 0
1.3 1.9 0
1.4 1.9 0
1.5 1.9 0
1.6 1.9 0
1.7 1.9 0
1.8 1.9 0
[...]
CELL_DATA 4000
VECTORS velocity double 
3.6559e-06 0.000312452 -0.000316108
1.75575e-06 0.000359448 -0.000367274
1.60799e-07 0.000362099 -0.000370905
-6.52839e-07 0.000362829 -0.000372107
-7.2966e-07 0.000363205 -0.000372813
-1.83095e-07 0.000363409 -0.000373262
8.71108e-07 0.000363522 -0.000373558
2.31695e-06 0.000363587 -0.000373749
4.04254e-06 0.000363623 -0.000373864
5.94872e-06 0.000363633 -0.000373921
7.95385e-06 0.000363633 -0.000373918
9.96965e-06 0.000363624 -0.000373852
1.18829e-05 0.000363578 -0.000373736
1.36145e-05 0.000363493 -0.000373546
1.51064e-05 0.000363356 -0.00037324
1.62808e-05 0.0003631 -0.000372785
1.70877e-05 0.0003626 -0.000372105
1.75791e-05 0.000361619 -0.000370988
1.8013e-05 0.000358377 -0.000367811
9.00649e-06 0.000309537 -0.000318894
6.04414e-06 0.000827518 -0.000376433
4.88775e-06 0.000960998 -0.000436557
2.89889e-06 0.00096786 -0.000440377
1.46504e-06 0.00096941 -0.000441692
8.55668e-07 0.000970229 -0.000442468
1.03135e-06 0.000970673 -0.000442968
1.87397e-06 0.00097092 -0.000443296
3.23551e-06 0.000971058 -0.000443507
4.9624e-06 0.000971123 -0.00044364
6.94284e-06 0.000971144 -0.000443702
9.0655e-06 0.000971138 -0.000443696
1.11906e-05 0.000971091 -0.000443635
1.31953e-05 0.00097098 -0.000443512
1.49863e-05 0.000970803 -0.000443292
1.64393e-05 0.000970506 -0.00044295
1.73794e-05 0.000969941 -0.000442452
1.7589e-05 0.000968885 -0.000441689
1.66746e-05 0.000966929 -0.000440448
1.44687e-05 0.000959371 -0.000437022
7.23437e-06 0.000824614 -0.000378819
9.98311e-06 0.00146659 -0.000400976
9.32396e-06 0.00171462 -0.000464305
6.53732e-06 0.00172614 -0.000468342
4.12562e-06 0.00172818 -0.000469751
2.68579e-06 0.00172928 -0.000470587
2.24484e-06 0.00172988 -0.000471124
2.65759e-06 0.00173021 -0.000471475
3.72011e-06 0.00173038 -0.000471702
5.24833e-06 0.00173045 -0.000471843
7.09597e-06 0.00173047 -0.000471906
9.10726e-06 0.00173044 -0.000471906
1.11249e-05 0.00173036 -0.000471849
1.30245e-05 0.00173022 -0.000471709
1.46648e-05 0.00172999 -0.000471466
1.58325e-05 0.00172956 -0.000471109
1.62629e-05 0.00172879 -0.000470577
1.55647e-05 0.00172742 -0.000469739
1.29709e-05 0.00172497 -0.000468383
8.14056e-06 0.00171285 -0.000464714
4.07028e-06 0.00146417 -0.000403206
1.32913e-05 0.00219928 -0.000435766
1.32506e-05 0.00258519 -0.000504096
9.89463e-06 0.00260175 -0.000508457
6.65283e-06 0.00260389 -0.000509999
4.45923e-06 0.00260506 -0.000510918
3.43499e-06 0.00260569 -0.000511505
3.42553e-06 0.00260602 -0.000511885
4.19218e-06 0.00260617 -0.000512134
5.52505e-06 0.00260622 -0.000512286
7.2342e-06 0.00260622 -0.000512355
9.12916e-06 0.00260617 -0.000512361
1.10545e-05 0.00260607 -0.000512294
1.28504e-05 0.00260593 -0.000512137
1.43069e-05 0.00260569 -0.000511876
1.51686e-05 0.00260525 -0.000511486
1.51189e-05 0.00260444 -0.000510888
1.35867e-05 0.00260299 -0.000509971
9.59579e-06 0.00260048 -0.000508488
2.99962e-06 0.00258349 -0.000504472
1.49981e-06 0.00219736 -0.000437954
1.58446e-05 0.00302356 -0.000483103
1.63817e-05 0.00356915 -0.000558336
1.26337e-05 0.00359136 -0.00056313
8.73879e-06 0.00359335 -0.000564838
5.92824e-06 0.00359442 -0.000565856
4.41165e-06 0.00359497 -0.000566501
4.03794e-06 0.00359522 -0.000566919
4.55608e-06 0.0035953 -0.000567191
5.72598e-06 0.0035953 -0.000567355
7.32147e-06 0.00359525 -0.000567433
9.13598e-06 0.00359517 -0.000567442
1.09974e-05 0.00359509 -0.000567362
1.27063e-05 0.00359497 -0.000567188
1.40201e-05 0.00359478 -0.000566903
1.46307e-05 0.00359441 -0.000566477
1.41377e-05 0.0035937 -0.000565815
1.18989e-05 0.00359239 -0.000564787
6.85789e-06 0.00359009 -0.000563122
-9.62319e-07 0.00356759 -0.000558672
-4.8116e-07 0.00302201 -0.000485277
1.79572e-05 0.0039526 -0.000544186
1.89511e-05 0.00468052 -0.000628455
1.48521e-05 0.00470921 -0.000633803
1.0395e-05 0.00471093 -0.000635713
7.05713e-06 0.00471179 -0.000636841
5.12213e-06 0.00471217 -0.000637551
4.44558e-06 0.00471227 -0.000638014
4.7677e-06 0.00471224 -0.000638311
5.8168e-06 0.00471214 -0.00063849
7.34191e-06 0.00471203 -0.000638579
9.12887e-06 0.00471193 -0.000638582
1.0973e-05 0.00471186 -0.000638493
1.2638e-05 0.00471181 -0.000638316
1.38547e-05 0.00471171 -0.000638004
1.42737e-05 0.00471149 -0.000637523
1.34294e-05 0.00471098 -0.000636791
1.06143e-05 0.00470992 -0.000635647
4.68661e-06 0.00470796 -0.000633768
-4.18823e-06 0.00467908 -0.000628749
-2.09412e-06 0.00395128 -0.000546349
1.99284e-05 0.0050088 -0.000620943
2.12445e-05 0.00594458 -0.000716749
1.67327e-05 0.00598076 -0.000722797
1.17137e-05 0.00598215 -0.000724941
7.87713e-06 0.00598274 -0.000726197
5.56104e-06 0.00598287 -0.000726985
4.63121e-06 0.00598278 -0.000727493
4.80421e-06 0.00598258 -0.000727814
5.77944e-06 0.00598237 -0.000728011
7.29088e-06 0.00598218 -0.000728107
9.10337e-06 0.00598206 -0.000728107
1.09802e-05 0.00598203 -0.000728012
1.26661e-05 0.00598205 -0.000727829
1.38597e-05 0.00598209 -0.000727496
1.41516e-05 0.00598205 -0.000726972
1.30193e-05 0.00598178 -0.000726164
9.69549e-06 0.00598105 -0.000724875
2.92248e-06 0.00597946 -0.000722739
-7.06779e-06 0.00594315 -0.000717004
-3.5339e-06 0.00500758 -0.000623108
2.19805e-05 0.00622197 -0.000716358
2.34885e-05 0.00739581 -0.000826743
1.84322e-05 0.00744067 -0.000833666
1.27765e-05 0.00744173 -0.000836089
8.41465e-06 0.00744197 -0.000837494
5.73239e-06 0.0074418 -0.000838366
4.58583e-06 0.00744145 -0.000838914
4.65264e-06 0.00744106 -0.00083926
5.60613e-06 0.00744071 -0.000839472
7.16607e-06 0.00744045 -0.00083957
9.07085e-06 0.00744031 -0.00083957
1.10446e-05 0.00744031 -0.000839476
1.28084e-05 0.00744042 -0.000839284
1.4029e-05 0.00744062 -0.000838936
1.42573e-05 0.00744081 -0.000838371
1.291e-05 0.00744085 -0.000837474
9.10937e-06 0.00744047 -0.000836023
1.43979e-06 0.00743926 -0.000833581
-9.87287e-06 0.00739431 -0.000826957
-4.93643e-06 0.00622076 -0.000718526
2.42636e-05 0.00762989 -0.000834919
2.58314e-05 0.00907869 -0.000963721
2.0042e-05 0.0091336 -0.000971742
1.36168e-05 0.00913429 -0.000974502
8.67199e-06 0.00913411 -0.000976072
5.62556e-06 0.00913357 -0.000977023
4.29398e-06 0.00913292 -0.000977608
4.30462e-06 0.00913231 -0.000977975
5.30783e-06 0.00913179 -0.000978191
6.97639e-06 0.00913145 -0.000978298
9.02248e-06 0.00913128 -0.000978306
1.11449e-05 0.00913131 -0.000978219
1.30559e-05 0.00913155 -0.00097801
1.43861e-05 0.00913194 -0.00097764
1.46352e-05 0.00913241 -0.00097704
1.31343e-05 0.00913282 -0.000976061
8.86138e-06 0.00913288 -0.000974434
1.71004e-07 0.00913207 -0.000971613
-1.27701e-05 0.0090771 -0.00096386
-6.38506e-06 0.00762864 -0.000837089
2.68788e-05 0.00928108 -0.000983423
2.83465e-05 0.0110508 -0.00113569
2.1572e-05 0.0111173 -0.0011451
1.42037e-05 0.0111176 -0.00114826
8.60454e-06 0.0111168 -0.00115001
5.19541e-06 0.0111158 -0.00115103
3.7186e-06 0.0111148 -0.00115164
3.73693e-06 0.0111139 -0.00115202
4.85913e-06 0.0111132 -0.00115223
6.69375e-06 0.0111128 -0.00115234
8.95417e-06 0.0111126 -0.00115235
1.13156e-05 0.0111127 -0.00115227
1.34548e-05 0.011113 -0.00115207
1.498e-05 0.0111136 -0.00115171
1.53437e-05 0.0111145 -0.00115109
1.37643e-05 0.0111154 -0.00115003
9.03014e-06 0.011116 -0.0011482
-8.61307e-07 0.0111157 -0.00114493
-1.58952e-05 0.0110491 -0.00113574
-7.94759e-06 0.00927976 -0.0009856
2.98829e-05 0.01124 -0.00117248
3.10157e-05 0.0133888 -0.00135516
2.29239e-05 0.0134689 -0.00136634
1.44044e-05 0.0134684 -0.00136997
8.08055e-06 0.0134669 -0.00137189
4.32364e-06 0.0134653 -0.00137297
2.76894e-06 0.0134638 -0.0013736
2.88964e-06 0.0134625 -0.00137397
4.23107e-06 0.0134616 -0.00137415
6.32792e-06 0.013461 -0.00137428
8.87469e-06 0.0134608 -0.00137431
1.15549e-05 0.0134609 -0.00137424
1.40243e-05 0.0134615 -0.00137407
1.58703e-05 0.0134624 -0.00137373
1.64877e-05 0.0134637 -0.00137311
1.4952e-05 0.0134652 -0.00137198
9.78091e-06 0.0134666 -0.00136994
-1.52109e-06 0.0134671 -0.00136615
-1.92351e-05 0.013387 -0.00135512
-9.61756e-06 0.0112386 -0.00117463
3.32697e-05 0.0135962 -0.00141935
3.36781e-05 0.0161994 -0.00164245
2.38271e-05 0.0162954 -0.00165596
1.39254e-05 0.0162936 -0.00166012
6.83508e-06 0.0162911 -0.00166221
2.80599e-06 0.0162885 -0.00166331
1.31195e-06 0.0162864 -0.0016639
1.67302e-06 0.0162847 -0.00166426
3.33943e-06 0.0162835 -0.00166441
5.82383e-06 0.0162828 -0.0016645
8.77701e-06 0.0162825 -0.00166454
1.18833e-05 0.0162827 -0.00166451
1.48199e-05 0.0162834 -0.00166439
1.71643e-05 0.0162847 -0.0016641
1.82413e-05 0.0162867 -0.00166352
1.69491e-05 0.0162891 -0.00166237
1.14328e-05 0.0162917 -0.00166012
-1.47929e-06 0.0162934 -0.00165571
-2.25622e-05 0.0161976 -0.00164227
-1.12811e-05 0.0135948 -0.00142145
3.691e-05 0.0164817 -0.0017536
3.59238e-05 0.0196396 -0.00203238
2.37314e-05 0.0197539 -0.00204897
1.22265e-05 0.0197502 -0.00205372
4.41661e-06 0.0197458 -0.00205592
3.13371e-07 0.019742 -0.00205698
-8.85138e-07 0.0197391 -0.00205745
-5.22863e-08 0.0197369 -0.00205772
2.11866e-06 0.0197353 -0.00205786
5.13528e-06 0.0197345 -0.00205793
8.63884e-06 0.0197342 -0.00205796
1.23268e-05 0.0197344 -0.00205798
1.59196e-05 0.0197354 -0.00205794
1.90033e-05 0.0197372 -0.00205776
2.08413e-05 0.0197399 -0.00205729
2.01392e-05 0.0197436 -0.0020562
1.45588e-05 0.019748 -0.00205382
-8.15126e-08 0.0197519 -0.00204868
-2.54349e-05 0.0196376 -0.002032
-1.27174e-05 0.0164803 -0.00175564
4.03948e-05 0.0201037 -0.00222897
3.68629e-05 0.0239545 -0.00258818
2.158e-05 0.0240904 -0.00260896
8.34882e-06 0.0240831 -0.00261429
8.43139e-08 0.0240761 -0.00261646
-3.66178e-06 0.0240705 -0.00261735
-4.16845e-06 0.0240665 -0.00261768
-2.52062e-06 0.0240636 -0.00261777
4.5886e-07 0.0240617 -0.0026178
4.22906e-06 0.0240607 -0.00261782
8.45215e-06 0.0240603 -0.00261788
1.29069e-05 0.0240607 -0.00261796
1.73924e-05 0.024062 -0.00261803
2.15407e-05 0.0240643 -0.00261803
2.4608e-05 0.0240681 -0.0026178
2.51137e-05 0.0240736 -0.00261692
2.00929e-05 0.0240808 -0.00261453
3.85145e-06 0.0240882 -0.00260867
-2.68638e-05 0.0239526 -0.00258757
-1.34319e-05 0.0201023 -0.00223095
4.26409e-05 0.0248135 -0.00295076
3.45697e-05 0.0295578 -0.00343348
1.53385e-05 0.0297185 -0.00346006
6.18764e-07 0.0297051 -0.00346573
-7.36908e-06 0.0296941 -0.00346757
-9.9087e-06 0.0296862 -0.00346797
-8.9774e-06 0.0296807 -0.00346799
-5.97452e-06 0.0296771 -0.00346789
-1.80008e-06 0.0296748 -0.00346777
3.00361e-06 0.0296736 -0.00346773
8.17624e-06 0.0296732 -0.0034678
1.36263e-05 0.0296737 -0.00346795
1.92941e-05 0.0296753 -0.00346819
2.49467e-05 0.0296783 -0.00346847
2.99646e-05 0.0296834 -0.00346864
3.27428e-05 0.0296914 -0.00346824
2.95609e-05 0.0297026 -0.0034662
1.25291e-05 0.0297164 -0.00345981
-2.46579e-05 0.0295561 -0.00343256
-1.2329e-05 0.0248122 -0.00295262
4.07723e-05 0.0312622 -0.0041439
2.47178e-05 0.0372106 -0.00483167
9.51291e-07 0.0373991 -0.00486618
-1.39647e-05 0.0373753 -0.00487132
-1.98762e-05 0.0373584 -0.00487221
-1.96586e-05 0.0373474 -0.00487182
-1.6053e-05 0.0373404 -0.00487126
-1.08008e-05 0.037336 -0.0048708
-4.8515e-06 0.0373334 -0.00487049
1.35932e-06 0.037332 -0.00487036
7.76e-06 0.0373316 -0.00487042
1.44607e-05 0.0373322 -0.00487067
2.16399e-05 0.037334 -0.00487113
2.93714e-05 0.0373378 -0.00487181
3.73727e-05 0.0373444 -0.00487262
4.41814e-05 0.0373554 -0.00487316
4.54397e-05 0.0373727 -0.00487221
3.0197e-05 0.0373973 -0.00486612
-1.37232e-05 0.0372094 -0.00483045
-6.86158e-06 0.0312613 -0.00414561
2.6663e-05 0.0407906 -0.00634004
-3.06541e-06 0.048465 -0.00740194
-3.01354e-05 0.0486826 -0.00744645
-4.12206e-05 0.0486415 -0.00744864
-4.08868e-05 0.0486166 -0.00744705
-3.47305e-05 0.0486021 -0.00744523
-2.63324e-05 0.0485935 -0.00744383
-1.74931e-05 0.0485885 -0.00744286
-8.95749e-06 0.0485856 -0.00744228
-8.34337e-07 0.0485841 -0.00744203
7.11243e-06 0.0485837 -0.00744206
1.53198e-05 0.0485844 -0.00744242
2.43462e-05 0.0485865 -0.00744315
3.48128e-05 0.0485907 -0.00744435
4.71617e-05 0.0485987 -0.0074461
6.07912e-05 0.0486131 -0.00744831
7.15832e-05 0.0486386 -0.00744994
6.51062e-05 0.0486812 -0.0074467
1.83446e-05 0.048465 -0.0074005
9.17228e-06 0.0407904 -0.00634151
-2.49919e-05 0.0563809 -0.0108104
-7.60957e-05 0.0667463 -0.0126324
-9.74056e-05 0.0669899 -0.0126851
-9.2849e-05 0.0669224 -0.0126784
-7.69382e-05 0.0668888 -0.0126719
-5.85682e-05 0.0668714 -0.0126677
-4.152e-05 0.066862 -0.012665
-2.68729e-05 0.0668568 -0.0126634
-1.45031e-05 0.0668539 -0.0126624
-3.78694e-06 0.0668525 -0.012662
6.0738e-06 0.0668521 -0.012662
1.60175e-05 0.0668527 -0.0126625
2.71551e-05 0.0668548 -0.0126635
4.09119e-05 0.066859 -0.0126653
5.91088e-05 0.0668676 -0.0126683
8.35464e-05 0.0668845 -0.0126731
0.000113376 0.0669187 -0.0126801
0.000133991 0.0669886 -0.0126864
0.000105294 0.0667483 -0.0126317
5.2647e-05 0.0563824 -0.0108118
-0.000204114 0.0815582 -0.0171875
-0.000275497 0.0957849 -0.0199458
-0.00025158 0.0960586 -0.0199898
-0.000196623 0.0959657 -0.019961
-0.000142384 0.0959289 -0.019946
-9.8407e-05 0.0959122 -0.0199382
-6.52327e-05 0.0959038 -0.0199339
-4.07313e-05 0.0958993 -0.0199315
-2.23849e-05 0.0958969 -0.0199301
-7.98551e-06 0.0958957 -0.0199295
4.30678e-06 0.0958954 -0.0199294
1.61834e-05 0.095896 -0.0199299
2.94728e-05 0.0958976 -0.0199312
4.66507e-05 0.0959011 -0.0199336
7.16243e-05 0.0959085 -0.0199379
0.000111085 0.0959243 -0.0199462
0.000175433 0.0959612 -0.0199622
0.000270035 0.096057 -0.0199923
0.000352664 0.0957879 -0.0199486
0.000176332 0.0815635 -0.0171902
-0.00087897 0.0407791 0.0542287
-0.000839266 0.0478924 0.061908
-0.000609344 0.0480293 0.062331
-0.000407031 0.0479828 0.0623945
-0.000262753 0.0479645 0.0624188
-0.000166597 0.0479561 0.0624298
-0.000103845 0.0479519 0.0624355
-6.27081e-05 0.0479497 0.0624385
-3.49767e-05 0.0479485 0.0624402
-1.51759e-05 0.0479479 0.0624409
3.82154e-07 0.0479477 0.0624411
1.44723e-05 0.047948 0.0624406
2.97291e-05 0.0479488 0.0624393
4.95284e-05 0.0479506 0.0624368
7.97571e-05 0.0479542 0.0624317
0.000133269 0.0479621 0.0624209
0.000243369 0.0479806 0.0623956
0.000510611 0.0480285 0.0623277
0.00113763 0.047894 0.0618976
0.000568815 0.0407818 0.0542241
-1.28501e-06 0.000342961 -0.000827387
-3.29386e-06 0.000395733 -0.000964185
-3.78988e-06 0.000398389 -0.000972335
-3.47728e-06 0.000399109 -0.000974793
-2.63642e-06 0.000399475 -0.000976321
-1.37768e-06 0.000399668 -0.000977329
2.38601e-07 0.000399775 -0.000978007
2.14571e-06 0.000399837 -0.000978454
4.26961e-06 0.000399867 -0.000978729
6.54814e-06 0.000399878 -0.000978864
8.91696e-06 0.000399881 -0.000978858
1.12738e-05 0.000399861 -0.00097872
1.3528e-05 0.000399811 -0.000978442
1.56348e-05 0.000399738 -0.000977969
1.75371e-05 0.000399611 -0.000977251
1.92062e-05 0.000399359 -0.000976221
2.0749e-05 0.000398882 -0.000974703
2.25278e-05 0.000397923 -0.000972342
2.47366e-05 0.000394736 -0.000964764
1.23683e-05 0.000340449 -0.000830039
1.0798e-06 0.000922909 -0.000993113
-2.92546e-07 0.00107259 -0.00115528
-1.21729e-06 0.00107932 -0.00116396
-1.51546e-06 0.00108083 -0.00116668
-1.18788e-06 0.00108161 -0.00116839
-2.74358e-07 0.00108203 -0.00116952
1.15464e-06 0.00108226 -0.00117028
2.99194e-06 0.00108239 -0.00117078
5.1391e-06 0.00108245 -0.0011711
7.5117e-06 0.00108247 -0.00117125
1.00003e-05 0.00108245 -0.00117125
1.2478e-05 0.00108239 -0.0011711
1.48529e-05 0.00108229 -0.00117079
1.70392e-05 0.00108214 -0.00117025
1.89197e-05 0.00108185 -0.00116945
2.0394e-05 0.0010813 -0.0011683
2.13758e-05 0.0010803 -0.0011666
2.18067e-05 0.0010784 -0.00116396
2.15436e-05 0.00107102 -0.00115578
1.07718e-05 0.000920302 -0.000995474
5.05746e-06 0.00165093 -0.00106168
4.11463e-06 0.00192922 -0.00123313
2.37335e-06 0.00194039 -0.0012424
1.09582e-06 0.00194233 -0.00124535
5.99981e-07 0.00194336 -0.0012472
9.06412e-07 0.00194392 -0.00124841
1.9116e-06 0.00194422 -0.00124923
3.45789e-06 0.00194437 -0.00124977
5.41508e-06 0.00194443 -0.00125011
7.6532e-06 0.00194445 -0.00125027
1.00276e-05 0.00194441 -0.00125028
1.24145e-05 0.00194432 -0.00125012
1.46984e-05 0.00194419 -0.00124977
1.67294e-05 0.00194398 -0.00124919
1.83352e-05 0.00194359 -0.00124834
1.93275e-05 0.00194286 -0.00124709
1.94265e-05 0.00194156 -0.00124523
1.82056e-05 0.00193921 -0.00124235
1.5296e-05 0.00192748 -0.00123355
7.64801e-06 0.00164868 -0.00106388
8.16598e-06 0.00249196 -0.00115587
7.78716e-06 0.00292516 -0.00134122
5.51116e-06 0.00294109 -0.0013513
3.4525e-06 0.00294306 -0.00135455
2.25198e-06 0.00294413 -0.00135658
2.01467e-06 0.0029447 -0.00135791
2.62072e-06 0.00294499 -0.0013588
3.89246e-06 0.00294512 -0.0013594
5.66771e-06 0.00294515 -0.00135976
7.76971e-06 0.00294514 -0.00135994
1.00418e-05 0.00294508 -0.00135994
1.23498e-05 0.00294499 -0.00135976
1.45358e-05 0.00294486 -0.00135937
1.63988e-05 0.00294464 -0.00135876
1.77297e-05 0.00294424 -0.00135783
1.82545e-05 0.0029435 -0.00135643
1.75509e-05 0.00294216 -0.00135438
1.50394e-05 0.00293982 -0.00135118
1.04652e-05 0.0029235 -0.00134156
5.23259e-06 0.00249011 -0.00115803
1.03304e-05 0.0034421 -0.00128166
1.04682e-05 0.00405465 -0.00148591
7.87477e-06 0.00407589 -0.00149703
5.26127e-06 0.00407762 -0.00150064
3.5297e-06 0.00407856 -0.00150289
2.86064e-06 0.00407903 -0.00150436
3.1463e-06 0.00407923 -0.00150534
4.2018e-06 0.00407928 -0.00150599
5.83062e-06 0.00407925 -0.00150638
7.831e-06 0.00407919 -0.00150658
1.00426e-05 0.00407911 -0.00150658
1.22994e-05 0.00407903 -0.00150638
1.44113e-05 0.00407893 -0.00150597
1.61447e-05 0.00407876 -0.00150528
1.72512e-05 0.00407845 -0.00150424
1.73836e-05 0.00407782 -0.00150271
1.60569e-05 0.00407666 -0.00150042
1.26317e-05 0.00407463 -0.00149684
7.0403e-06 0.00405313 -0.00148616
3.52015e-06 0.00344058 -0.00128379
1.18761e-05 0.00451444 -0.00144247
1.23936e-05 0.00533152 -0.00167129
9.56423e-06 0.00535883 -0.00168372
6.53586e-06 0.00536021 -0.00168775
4.39759e-06 0.00536089 -0.00169025
3.39362e-06 0.00536117 -0.00169187
3.43977e-06 0.00536121 -0.00169295
4.33955e-06 0.00536114 -0.00169366
5.87144e-06 0.00536102 -0.00169409
7.82777e-06 0.0053609 -0.0016943
1.00288e-05 0.0053608 -0.00169429
1.22689e-05 0.00536074 -0.00169409
1.43601e-05 0.00536069 -0.00169364
1.60309e-05 0.00536062 -0.00169291
1.69727e-05 0.00536046 -0.00169177
1.6807e-05 0.00536004 -0.00169007
1.50189e-05 0.00535918 -0.0016875
1.09253e-05 0.00535759 -0.00168348
4.60263e-06 0.0053301 -0.00167148
2.30132e-06 0.00451312 -0.00144458
1.30865e-05 0.0057326 -0.00164352
1.38324e-05 0.00678231 -0.0019036
1.07568e-05 0.00681666 -0.00191765
7.36102e-06 0.00681762 -0.00192217
4.87926e-06 0.00681798 -0.00192495
3.61115e-06 0.00681799 -0.00192674
3.48678e-06 0.00681783 -0.00192792
4.28744e-06 0.00681761 -0.00192868
5.78028e-06 0.00681737 -0.00192915
7.75141e-06 0.00681718 -0.00192937
9.99402e-06 0.00681706 -0.00192936
1.22726e-05 0.00681703 -0.00192916
1.43985e-05 0.00681706 -0.00192868
1.60699e-05 0.00681712 -0.00192789
1.69275e-05 0.00681714 -0.00192665
1.65613e-05 0.006817 -0.00192478
1.44088e-05 0.0068165 -0.0019219
9.75973e-06 0.00681538 -0.00191735
2.77595e-06 0.00678092 -0.00190371
1.38798e-06 0.00573137 -0.00164565
1.41513e-05 0.00712847 -0.00189251
1.49803e-05 0.00844386 -0.00219192
1.15843e-05 0.00848634 -0.00220799
7.80405e-06 0.00848686 -0.00221309
5.00197e-06 0.00848684 -0.00221617
3.52404e-06 0.00848654 -0.00221814
3.28438e-06 0.00848614 -0.0022194
4.04197e-06 0.00848573 -0.00222021
5.5577e-06 0.00848536 -0.00222071
7.60286e-06 0.0084851 -0.00222094
9.94681e-06 0.00848496 -0.00222093
1.23326e-05 0.00848495 -0.00222073
1.45437e-05 0.00848507 -0.00222024
1.62688e-05 0.00848529 -0.0022194
1.71195e-05 0.00848553 -0.00221808
1.66344e-05 0.0084857 -0.00221602
1.41919e-05 0.00848561 -0.0022128
9.01876e-06 0.00848498 -0.00220762
1.33138e-06 0.00844245 -0.00219194
6.65691e-07 0.00712728 -0.00189467
1.51677e-05 0.00874242 -0.00220058
1.59331e-05 0.0103634 -0.00254946
1.2099e-05 0.0104153 -0.00256805
7.88293e-06 0.0104153 -0.0025738
4.77281e-06 0.0104149 -0.00257722
3.12683e-06 0.0104142 -0.00257934
2.82393e-06 0.0104135 -0.00258068
3.60759e-06 0.0104129 -0.00258153
5.212e-06 0.0104124 -0.00258203
7.38329e-06 0.010412 -0.00258229
9.87327e-06 0.0104119 -0.0025823
1.24315e-05 0.0104119 -0.00258209
1.47984e-05 0.0104121 -0.0025816
1.6646e-05 0.0104125 -0.00258074