# vtk DataFile Version 2.0 
Visualization 
ASCII 
DATASET STRUCTURED_GRID 
DIMENSIONS 21 21 11
POINTS 4851 float
-0.1 -0.1 0.9
0 -0.1 0.9
0.1 -0.1 0.9
0.2 -0.1 0.9
0.3 -0.1 0.9
0.4 -0.1 0.9
0.5 -0.1 0.9
0.6 -0.1 0.9
0.7 -0.1 0.9
0.8 -0.1 0.9
0.9 -0.1 0.9
1 -0.1 0.9
1.1 -0.1 0.9
1.2 -0.1 0.9
1.3 -0.1 0.9
1.4 -0.1 0.9
1.5 -0.1 0.9
1.6 -0.1 0.9
1.7 -0.1 0.9
1.8 -0.1 0.9
1.9 -0.1 0.9
-0.1 0 0.9
0 0 0.9
0.1 0 0.9
0.2 0 0.9
0.3 0 0.9
0.4 0 0.9
0.5 0 0.9
0.6 0 0.9
0.7 0 0.9
0.8 0 0.9
0.9 0 0.9
1 0 0.9
1.1 0 0.9
1.2 0 0.9
1.3 0 0.9
1.4 0 0.9
1.5 0 0.9
1.6 0 0.9
1.7 0 0.9
1.8 0 0.9
1.9 0 0.9
-0.1 0.1 0.9
0 0.1 0.9
0.1 0.1 0.9
0.2 0.1 0.9
0.3 0.1 0.9
0.4 0.1 0.9
0.5 0.1 0.9
0.6 0.1 0.9
0.7 0.1 0.9
0.8 0.1 0.9
0.9 0.1 0.9
1 0.1 0.9
1.1 0.1 0.9
1.2 0.1 0.9
1.3 0.1 0.9
1.4 0.1 0.9
1.5 0.1 0.9
1.6 0.1 0.9
1.7 0.1 0.9
1.8 0.1 0.9
1.9 0.1 0.9
-0.1 0.2 0.9
0 0.2 0.9
0.1 0.2 0.9
0.2 0.2 0.9
0.3 0.2 0.9
0.4 0.2 0.9
0.5 0.2 0.9
0.6 0.2 0.9
0.7 0.2 0.9
0.8 0.2 0.9
0.9 0.2 0.9
1 0.2 0.9
1.1 0.2 0.9
1.2 0.2 0.9
1.3 0.2 0.9
1.4 0.2 0.9
1.5 0.2 0.9
1.6 0.2 0.9
1.7 0.2 0.9
1.8 0.2 0.9
1.9 0.2 0.9
-0.1 0.3 0.9
0 0.3 0.9
0.1 0.3 0.9
0.2 0.3 0.9
0.3 0.3 0.9
0.4 0.3 0.9
0.5 0.3 0.9
0.6 0.3 0.9
0.7 0.3 0.9
0.8 0.3 0.9
0.9 0.3 0.9
1 0.3 0.9
1.1 0.3 0.9
1.2 0.3 0.9
1.3 0.3 0.9
1.4 0.3 0.9
1.5 0.3 0.9
1.6 0.3 0.9
1.7 0.3 0.9
1.8 0.3 0.9
1.9 0.3 0.9
-0.1 0.4 0.9
0 0.4 0.9
0.1 0.4 0.9
0.2 0.4 0.9
0.3 0.4 0.9
0.4 0.4 0.9
0.5 0.4 0.9
0.6 0.4 0.9
0.7 0.4 0.9
0.8 0.4 0.9
0.9 0.4 0.9
1 0.4 0.9
1.1 0.4 0.9
1.2 0.4 0.9
1.3 0.4 0.9
1.4 0.4 0.9
1.5 0.4 0.9
1.6 0.4 0.9
1.7 0.4 0.9
1.8 0.4 0.9
1.9 0.4 0.9
-0.1 0.5 0.9
0 0.5 0.9
0.1 0.5 0.9
0.2 0.5 0.9
0.3 0.5 0.9
0.4 0.5 0.9
0.5 0.5 0.9
0.6 0.5 0.9
0.7 0.5 0.9
0.8 0.5 0.9
0.9 0.5 0.9
1 0.5 0.9
1.1 0.5 0.9
1.2 0.5 0.9
1.3 0.5 0.9
1.4 0.5 0.9
1.5 0.5 0.9
1.6 0.5 0.9
1.7 0.5 0.9
1.8 0.5 0.9
1.9 0.5 0.9
-0.1 0.6 0.9
0 0.6 0.9
0.1 0.6 0.9
0.2 0.6 0.9
0.3 0.6 0.9
0.4 0.6 0.9
0.5 0.6 0.9
0.6 0.6 0.9
0.7 0.6 0.9
0.8 0.6 0.9
0.9 0.6 0.9
1 0.6 0.9
1.1 0.6 0.9
1.2 0.6 0.9
1.3 0.6 0.9
1.4 0.6 0.9
1.5 0.6 0.9
1.6 0.6 0.9
1.7 0.6 0.9
1.8 0.6 0.9
1.9 0.6 0.9
-0.1 0.7 0.9
0 0.7 0.9
0.1 0.7 0.9
0.2 0.7 0.9
0.3 0.7 0.9
0.4 0.7 0.9
0.5 0.7 0.9
0.6 0.7 0.9
0.7 0.7 0.9
0.8 0.7 0.9
0.9 0.7 0.9
1 0.7 0.9
1.1 0.7 0.9
1.2 0.7 0.9
1.3 0.7 0.9
1.4 0.7 0.9
1.5 0.7 0.9
1.6 0.7 0.9
1.7 0.7 0.9
1.8 0.7 0.9
1.9 0.7 0.9
-0.1 0.8 0.9
0 0.8 0.9
0.1 0.8 0.9
0.2 0.8 0.9
0.3 0.8 0.9
0.4 0.8 0.9
0.5 0.8 0.9
0.6 0.8 0.9
0.7 0.8 0.9
0.8 0.8 0.9
0.9 0.8 0.9
1 0.8 0.9
1.1 0.8 0.9
1.2 0.8 0.9
1.3 0.8 0.9
1.4 0.8 0.9
1.5 0.8 0.9
1.6 0.8 0.9
1.7 0.8 0.9
1.8 0.8 0.9
1.9 0.8 0.9
-0.1 0.9 0.9
0 0.9 0.9
0.1 0.9 0.9
0.2 0.9 0.9
0.3 0.9 0.9
0.4 0.9 0.9
0.5 0.9 0.9
0.6 0.9 0.9
0.7 0.9 0.9
0.8 0.9 0.9
0.9 0.9 0.9
1 0.9 0.9
1.1 0.9 0.9
1.2 0.9 0.9
1.3 0.9 0.9
1.4 0.9 0.9
1.5 0.9 0.9
1.6 0.9 0.9
1.7 0.9 0.9
1.8 0.9 0.9
1.9 0.9 0.9
-0.1 1 0.9
0 1 0.9
0.1 1 0.9
0.2 1 0.9
0.3 1 0.9
0.4 1 0.9
0.5 1 0.9
0.6 1 0.9
0.7 1 0.9
0.8 1 0.9
0.9 1 0.9
1 1 0.9
1.1 1 0.9
1.2 1 0.9
1.3 1 0.9
1.4 1 0.9
1.5 1 0.9
1.6 1 0.9
1.7 1 0.9
1.8 1 0.9
1.9 1 0.9
-0.1 1.1 0.9
0 1.1 0.9
0.1 1.1 0.9
0.2 1.1 0.9
0.3 1.1 0.9
0.4 1.1 0.9
0.5 1.1 0.9
0.6 1.1 0.9
0.7 1.1 0.9
0.8 1.1 0.9
0.9 1.1 0.9
1 1.1 0.9
1.1 1.1 0.9
1.2 1.1 0.9
1.3 1.1 0.9
1.4 1.1 0.9
1.5 1.1 0.9
1.6 1.1 0.9
1.7 1.1 0.9
1.8 1.1 0.9
1.9 1.1 0.9
-0.1 1.2 0.9
0 1.2 0.9
0.1 1.2 0.9
0.2 1.2 0.9
0.3 1.2 0.9
0.4 1.2 0.9
0.5 1.2 0.9
0.6 1.2 0.9
0.7 1.2 0.9
0.8 1.2 0.9
0.9 1.2 0.9
1 1.2 0.9
1.1 1.2 0.9
1.2 1.2 0.9
1.3 1.2 0.9
1.4 1.2 0.9
1.5 1.2 0.9
1.6 1.2 0.9
1.7 1.2 0.9
1.8 1.2 0.9
1.9 1.2 0.9
-0.1 1.3 0.9
0 1.3 0.9
0.1 1.3 0.9
0.2 1.3 0.9
0.3 1.3 0.9
0.4 1.3 0.9
0.5 1.3 0.9
0.6 1.3 0.9
0.7 1.3 0.9
0.8 1.3 0.9
0.9 1.3 0.9
1 1.3 0.9
1.1 1.3 0.9
1.2 1.3 0.9
1.3 1.3 0.9
1.4 1.3 0.9
1.5 1.3 0.9
1.6 1.3 0.9
1.7 1.3 0.9
1.8 1.3 0.9
1.9 1.3 0.9
-0.1 1.4 0.9
0 1.4 0.9
0.1 1.4 0.9
0.2 1.4 0.9
0.3 1.4 0.9
0.4 1.4 0.9
0.5 1.4 0.9
0.6 1.4 0.9
0.7 1.4 0.9
0.8 1.4 0.9
0.9 1.4 0.9
1 1.4 0.9
1.1 1.4 0.9
1.2 1.4 0.9
1.3 1.4 0.9
1.4 1.4 0.9
1.5 1.4 0.9
1.6 1.4 0.9
1.7 1.4 0.9
1.8 1.4 0.9
1.9 1.4 0.9
-0.1 1.5 0.9
0 1.5 0.9
0.1 1.5 0.9
0.2 1.5 0.9
0.3 1.5 0.9
0.4 1.5 0.9
0.5 1.5 0.9
0.6 1.5 0.9
0.7 1.5 0.9
0.8 1.5 0.9
0.9 1.5 0.9
1 1.5 0.9
1.1 1.5 0.9
1.2 1.5 0.9
1.3 1.5 0.9
1.4 1.5 0.9
1.5 1.5 0.9
1.6 1.5 0.9
1.7 1.5 0.9
1.8 1.5 0.9
1.9 1.5 0.9
-0.1 1.6 0.9
0 1.6 0.9
0.1 1.6 0.9
0.2 1.6 0.9
0.3 1.6 0.9
0.4 1.6 0.9
0.5 1.6 0.9
0.6 1.6 0.9
0.7 1.6 0.9
0.8 1.6 0.9
0.9 1.6 0.9
1 1.6 0.9
1.1 1.6 0.9
1.2 1.6 0.9
1.3 1.6 0.9
1.4 1.6 0.9
1.5 1.6 0.9
1.6 1.6 0.9
1.7 1.6 0.9
1.8 1.6 0.9
1.9 1.6 0.9
-0.1 1.7 0.9
0 1.7 0.9
0.1 1.7 0.9
0.2 1.7 0.9
0.3 1.7 0.9
0.4 1.7 0.9
0.5 1.7 0.9
0.6 1.7 0.9
0.7 1.7 0.9
0.8 1.7 0.9
0.9 1.7 0.9
1 1.7 0.9
1.1 1.7 0.9
1.2 1.7 0.9
1.3 1.7 0.9
1.4 1.7 0.9
1.5 1.7 0.9
1.6 1.7 0.9
1.7 1.7 0.9
1.8 1.7 0.9
1.9 1.7 0.9
-0.1 1.8 0.9
0 1.8 0.9
0.1 1.8 0.9
0.2 1.8 0.9
0.3 1.8 0.9
0.4 1.8 0.9
0.5 1.8 0.9
0.6 1.8 0.9
0.7 1.8 0.9
0.8 1.8 0.9
0.9 1.8 0.9
1 1.8 0.9
1.1 1.8 0.9
1.2 1.8 0.9
1.3 1.8 0.9
1.4 1.8 0.9
1.5 1.8 0.9
1.6 1.8 0.9
1.7 1.8 0.9
1.8 1.8 0.9
1.9 1.8 0.9
-0.1 1.9 0.9
0 1.9 0.9
0.1 1.9 0.9
0.2 1.9 0.9
0.3 1.9 0.9
0.4 1.9 0.9
0.5 1.9 0.9
0.6 1.9 0.9
0.7 1.9 0.9
0.8 1.9 0.9
0.9 1.9 0.9
1 1.9 0.9
1.1 1.9 0.9
1.2 1.9 0.9
1.3 1.9 0.9
1.4 1.9 0.9
1.5 1.9 0.9
1.6 1.9 0.9
1.7 1.9 0.9
1.8 1.9 0.9
1.9 1.9 0.9
-0.1 -0.1 1
0 -0.1 1
0.1 -0.1 1
0.2 -0.1 1
0.3 -0.1 1
0.4 -0.1 1
0.5 -0.1 1
0.6 -0.1 1
0.7 -0.1 1
0.8 -0.1 1
0.9 -0.1 1
1 -0.1 1
1.1 -0.1 1
1.2 -0.1 1
1.3 -0.1 1
1.4 -0.1 1
1.5 -0.1 1
1.6 -0.1 1
1.7 -0.1 1
1.8 -0.1 1
1.9 -0.1 1
-0.1 0 1
0 0 1
0.1 0 1
0.2 0 1
0.3 0 1
0.4 0 1
0.5 0 1
0.6 0 1
0.7 0 1
0.8 0 1
0.9 0 1
1 0 1
1.1 0 1
1.2 0 1
1.3 0 1
1.4 0 1
1.5 0 1
1.6 0 1
1.7 0 1
1.8 0 1
1.9 0 1
-0.1 0.1 1
0 0.1 1
0.1 0.1 1
0.2 0.1 1
0.3 0.1 1
0.4 0.1 1
0.5 0.1 1
0.6 0.1 1
0.7 0.1 1
0.8 0.1 1
0.9 0.1 1
1 0.1 1
1.1 0.1 1
1.2 0.1 1
1.3 0.1 1
1.4 0.1 1
1.5 0.1 1
1.6 0.1 1
1.7 0.1 1
1.8 0.1 1
1.9 0.1 1
-0.1 0.2 1
0 0.2 1
0.1 0.2 1
0.2 0.2 1
0.3 0.2 1
0.4 0.2 1
0.5 0.2 1
0.6 0.2 1
0.7 0.2 1
0.8 0.2 1
0.9 0.2 1
1 0.2 1
1.1 0.2 1
1.2 0.2 1
1.3 0.2 1
1.4 0.2 1
1.5 0.2 1
1.6 0.2 1
1.7 0.2 1
1.8 0.2 1
1.9 0.2 1
-0.1 0.3 1
0 0.3 1
0.1 0.3 1
0.2 0.3 1
0.3 0.3 1
0.4 0.3 1
0.5 0.3 1
0.6 0.3 1
0.7 0.3 1
0.8 0.3 1
0.9 0.3 1
1 0.3 1
1.1 0.3 1
1.2 0.3 1
1.3 0.3 1
1.4 0.3 1
1.5 0.3 1
1.6 0.3 1
1.7 0.3 1
1.8 0.3 1
1.9 0.3 1
-0.1 0.4 1
0 0.4 1
0.1 0.4 1
0.2 0.4 1
0.3 0.4 1
0.4 0.4 1
0.5 0.4 1
0.6 0.4 1
0.7 0.4 1
0.8 0.4 1
0.9 0.4 1
1 0.4 1
1.1 0.4 1
1.2 0.4 1
1.3 0.4 1
1.4 0.4 1
1.5 0.4 1
1.6 0.4 1
1.7 0.4 1
1.8 0.4 1
1.9 0.4 1
-0.1 0.5 1
0 0.5 1
0.1 0.5 1
0.2 0.5 1
0.3 0.5 1
0.4 0.5 1
0.5 0.5 1
0.6 0.5 1
0.7 0.5 1
0.8 0.5 1
0.9 0.5 1
1 0.5 1
1.1 0.5 1
1.2 0.5 1
1.3 0.5 1
1.4 0.5 1
1.5 0.5 1
1.6 0.5 1
1.7 0.5 1
1.8 0.5 1
1.9 0.5 1
-0.1 0.6 1
0 0.6 1
0.1 0.6 1
0.2 0.6 1
0.3 0.6 1
0.4 0.6 1
0.5 0.6 1
0.6 0.6 1
0.7 0.6 1
0.8 0.6 1
0.9 0.6 1
1 0.6 1
1.1 0.6 1
1.2 0.6 1
1.3 0.6 1
1.4 0.6 1
1.5 0.6 1
1.6 0.6 1
1.7 0.6 1
1.8 0.6 1
1.9 0.6 1
-0.1 0.7 1
0 0.7 1
0.1 0.7 1
0.2 0.7 1
0.3 0.7 1
0.4 0.7 1
0.5 0.7 1
0.6 0.7 1
0.7 0.7 1
0.8 0.7 1
0.9 0.7 1
1 0.7 1
1.1 0.7 1
1.2 0.7 1
1.3 0.7 1
1.4 0.7 1
1.5 0.7 1
1.6 0.7 1
1.7 0.7 1
1.8 0.7 1
1.9 0.7 1
-0.1 0.8 1
0 0.8 1
0.1 0.8 1
0.2 0.8 1
0.3 0.8 1
0.4 0.8 1
0.5 0.8 1
0.6 0.8 1
0.7 0.8 1
0.8 0.8 1
0.9 0.8 1
1 0.8 1
1.1 0.8 1
1.2 0.8 1
1.3 0.8 1
1.4 0.8 1
1.5 0.8 1
1.6 0.8 1
1.7 0.8 1
1.8 0.8 1
1.9 0.8 1
-0.1 0.9 1
0 0.9 1
0.1 0.9 1
0.2 0.9 1
0.3 0.9 1
0.4 0.9 1
0.5 0.9 1
0.6 0.9 1
0.7 0.9 1
0.8 0.9 1
0.9 0.9 1
1 0.9 1
1.1 0.9 1
1.2 0.9 1
1.3 0.9 1
1.4 0.9 1
1.5 0.9 1
1.6 0.9 1
1.7 0.9 1
1.8 0.9 1
1.9 0.9 1
-0.1 1 1
0 1 1
0.1 1 1
0.2 1 1
0.3 1 1
0.4 1 1
0.5 1 1
0.6 1 1
0.7 1 1
0.8 1 1
0.9 1 1
1 1 1
1.1 1 1
1.2 1 1
1.3 1 1
1.4 1 1
1.5 1 1
1.6 1 1
1.7 1 1
1.8 1 1
1.9 1 1
-0.1 1.1 1
0 1.1 1
0.1 1.1 1
0.2 1.1 1
0.3 1.1 1
0.4 1.1 1
0.5 1.1 1
0.6 1.1 1
0.7 1.1 1
0.8 1.1 1
0.9 1.1 1
1 1.1 1
1.1 1.1 1
1.2 1.1 1
1.3 1.1 1
1.4 1.1 1
1.5 1.1 1
1.6 1.1 1
1.7 1.1 1
1.8 1.1 1
1.9 1.1 1
-0.1 1.2 1
0 1.2 1
0.1 1.2 1
0.2 1.2 1
0.3 1.2 1
0.4 1.2 1
0.5 1.2 1
0.6 1.2 1
0.7 1.2 1
0.8 1.2 1
0.9 1.2 1
1 1.2 1
1.1 1.2 1
1.2 1.2 1
1.3 1.2 1
1.4 1.2 1
1.5 1.2 1
1.6 1.2 1
1.7 1.2 1
1.8 1.2 1
1.9 1.2 1
-0.1 1.3 1
0 1.3 1
0.1 1.3 1
0.2 1.3 1
0.3 1.3 1
0.4 1.3 1
0.5 1.3 1
0.6 1.3 1
0.7 1.3 1
0.8 1.3 1
0.9 1.3 1
1 1.3 1
1.1 1.3 1
1.2 1.3 1
1.3 1.3 1
1.4 1.3 1
1.5 1.3 1
1.6 1.3 1
1.7 1.3 1
1.8 1.3 1
1.9 1.3 1
-0.1 1.4 1
0 1.4 1
0.1 1.4 1
0.2 1.4 1
0.3 1.4 1
0.4 1.4 1
0.5 1.4 1
0.6 1.4 1
0.7 1.4 1
0.8 1.4 1
0.9 1.4 1
1 1.4 1
1.1 1.4 1
1.2 1.4 1
1.3 1.4 1
1.4 1.4 1
1.5 1.4 1
1.6 1.4 1
1.7 1.4 1
1.8 1.4 1
1.9 1.4 1
-0.1 1.5 1
0 1.5 1
0.1 1.5 1
0.2 1.5 1
0.3 1.5 1
0.4 1.5 1
0.5 1.5 1
0.6 1.5 1
0.7 1.5 1
0.8 1.5 1
0.9 1.5 1
1 1.5 1
1.1 1.5 1
1.2 1.5 1
1.3 1.5 1
1.4 1.5 1
1.5 1.5 1
1.6 1.5 1
1.7 1.5 1
1.8 1.5 1
1.9 1.5 1
-0.1 1.6 1
0 1.6 1
0.1 1.6 1
0.2 1.6 1
0.3 1.6 1
0.4 1.6 1
0.5 1.6 1
0.6 1.6 1
0.7 1.6 1
0.8 1.6 1
0.9 1.6 1
1 1.6 1
1.1 1.6 1
1.2 1.6 1
1.3 1.6 1
1.4 1.6 1
1.5 1.6 1
1.6 1.6 1
1.7 1.6 1
1.8 1.6 1
1.9 1.6 1
-0.1 1.7 1
0 1.7 1
0.1 1.7 1
0.2 1.7 1
0.3 1.7 1
0.4 1.7 1
0.5 1.7 1
0.6 1.7 1
0.7 1.7 1
0.8 1.7 1
0.9 1.7 1
1 1.7 1
1.1 1.7 1
1.2 1.7 1
1.3 1.7 1
1.4 1.7 1
1.5 1.7 1
1.6 1.7 1
1.7 1.7 1
1.8 1.7 1
1.9 1.7 1
-0.1 1.8 1
0 1.8 1
0.1 1.8 1
0.2 1.8 1
0.3 1.8 1
0.4 1.8 1
0.5 1.8 1
0.6 1.8 1
0.7 1.8 1
0.8 1.8 1
0.9 1.8 1
1 1.8 1
1.1 1.8 1
1.2 1.8 1
1.3 1.8 1
1.4 1.8 1
1.5 1.8 1
1.6 1.8 1
1.7 1.8 1
1.8 1.8 1
1.9 1.8 1
-0.1 1.9 1
0 1.9 1
0.1 1.9 1
0.2 1.9 1
0.3 1.9 1
0.4 1.9 1
0.5 1.9 1
0.6 1.9 1
0.7 1.9 1
0.8 1.9 1
0.9 1.9 1
1 1.9 1
1.1 1.9 1
1.2 1.9 1
1.3 1.9 1
1.4 1.9 1
1.5 1.9 1
1.6 1.9 1
1.7 1.9 1
1.8 1.9 1
1.9 1.9 1
-0.1 -0.1 1.1
0 -0.1 1.1
0.1 -0.1 1.1
0.2 -0.1 1.1
0.3 -0.1 1.1
0.4 -0.1 1.1
0.5 -0.1 1.1
0.6 -0.1 1.1
0.7 -0.1 1.1
0.8 -0.1 1.1
0.9 -0.1 1.1
1 -0.1 1.1
1.1 -0.1 1.1
1.2 -0.1 1.1
1.3 -0.1 1.1
1.4 -0.1 1.1
1.5 -0.1 1.1
1.6 -0.1 1.1
1.7 -0.1 1.1
1.8 -0.1 1.1
1.9 -0.1 1.1
-0.1 0 1.1
0 0 1.1
0.1 0 1.1
0.2 0 1.1
0.3 0 1.1
0.4 0 1.1
0.5 0 1.1
0.6 0 1.1
0.7 0 1.1
0.8 0 1.1
0.9 0 1.1
1 0 1.1
1.1 0 1.1
1.2 0 1.1
1.3 0 1.1
1.4 0 1.1
1.5 0 1.1
[...]
CELL_DATA 4000
VECTORS velocity double 
-3.8487e-05 -0.000229751 0.00210422
-7.26019e-05 -0.000275524 0.00129709
-8.74455e-05 -0.000290807 0.000986603
-8.85945e-05 -0.00029687 0.000957756
-8.36033e-05 -0.0002989 0.000977932
-7.68628e-05 -0.000299502 0.000994077
-7.01809e-05 -0.000299677 0.00100101
-6.39289e-05 -0.000299747 0.000999827
-5.77951e-05 -0.000299773 0.000991367
-5.11485e-05 -0.000299722 0.000976028
-4.32063e-05 -0.000299505 0.000954076
-3.3165e-05 -0.000298999 0.000925843
-2.03334e-05 -0.000298052 0.000891846
-4.33139e-06 -0.00029645 0.000852796
1.46645e-05 -0.000293919 0.000809464
3.54559e-05 -0.000290095 0.00076312
5.47489e-05 -0.000284427 0.000722793
6.46224e-05 -0.000276031 0.000750084
4.90335e-05 -0.000263966 0.00109587
2.45167e-05 -0.000230232 0.00199359
-6.18986e-05 -0.000587208 0.000960458
-0.000114494 -0.000711509 -0.00146716
-0.000138021 -0.000746802 -0.00225504
-0.000142237 -0.000761369 -0.0023637
-0.000137467 -0.000767121 -0.0023452
-0.000129343 -0.000769438 -0.00232299
-0.000120218 -0.000770527 -0.00231174
-0.000110715 -0.000771173 -0.00231098
-0.000100632 -0.000771564 -0.00231975
-8.93432e-05 -0.000771631 -0.0023376
-7.59952e-05 -0.000771163 -0.0023642
-5.96517e-05 -0.000769861 -0.0023991
-3.94017e-05 -0.000767336 -0.00244168
-1.46015e-05 -0.000763101 -0.00249095
1.48704e-05 -0.000756529 -0.00254593
4.81486e-05 -0.000746842 -0.00260447
8.22217e-05 -0.00073302 -0.0026479
0.000107717 -0.000713691 -0.00254282
9.86644e-05 -0.000685678 -0.0017119
4.93322e-05 -0.000587184 0.000837646
-8.74294e-05 -0.00100374 -6.17623e-05
-0.000155637 -0.001231 -0.0033729
-0.000184271 -0.00128916 -0.00438854
-0.000188188 -0.00131322 -0.00453485
-0.000180872 -0.00132351 -0.0045192
-0.000169369 -0.00132818 -0.00449589
-0.000156587 -0.00133066 -0.00448372
-0.000143323 -0.00133224 -0.00448264
-0.00012937 -0.00133326 -0.00449172
-0.000114015 -0.00133362 -0.0045105
-9.62723e-05 -0.00133298 -0.00453856
-7.50235e-05 -0.00133082 -0.00457542
-4.91509e-05 -0.00132648 -0.00462026
-1.77282e-05 -0.00131916 -0.00467191
1.96793e-05 -0.00130789 -0.004729
6.25341e-05 -0.00129154 -0.00478888
0.000107988 -0.0012688 -0.00482899
0.000145666 -0.00123793 -0.00468568
0.000142581 -0.00119143 -0.00362538
7.12907e-05 -0.0010024 -0.000185379
-0.000113014 -0.00145221 -0.00112683
-0.000197617 -0.00180649 -0.005173
-0.00023193 -0.00189172 -0.00636146
-0.000235615 -0.00192634 -0.00653633
-0.000225449 -0.00194176 -0.00652342
-0.000210098 -0.0019492 -0.00649962
-0.000193169 -0.00195341 -0.00648699
-0.000175686 -0.00195621 -0.00648588
-0.00015745 -0.00195811 -0.00649542
-0.000137657 -0.00195895 -0.00651514
-0.000115135 -0.00195826 -0.00654463
-8.85307e-05 -0.00195531 -0.00658324
-5.64815e-05 -0.00194913 -0.00662997
-1.77899e-05 -0.00193856 -0.00668336
2.82368e-05 -0.00192229 -0.00674157
8.12266e-05 -0.00189885 -0.00680125
0.000138111 -0.00186668 -0.00683684
0.000186875 -0.0018234 -0.00666311
0.000187601 -0.00175421 -0.0054292
9.38007e-05 -0.00144975 -0.00125287
-0.000140291 -0.0019163 -0.00247009
-0.000242914 -0.00241982 -0.00737914
-0.000283631 -0.00253718 -0.00876691
-0.000287161 -0.00258353 -0.0089753
-0.000273926 -0.00260458 -0.00896597
-0.000254408 -0.00261516 -0.00894187
-0.000232995 -0.00262138 -0.00892885
-0.000210964 -0.00262565 -0.00892778
-0.000188101 -0.00262865 -0.00893787
-0.000163475 -0.00263021 -0.00895863
-0.000135711 -0.00262969 -0.00898964
-0.000103163 -0.00262614 -0.00903014
-6.41555e-05 -0.00261827 -0.00907887
-1.72099e-05 -0.00260451 -0.009134
3.8603e-05 -0.00258312 -0.00919327
0.000102976 -0.00255226 -0.00925243
0.000172431 -0.00251001 -0.0092824
0.000232925 -0.00245297 -0.00907317
0.0002367 -0.00235585 -0.00763947
0.00011835 -0.00191332 -0.00259952
-0.000170614 -0.00237544 -0.00419381
-0.000293502 -0.00304606 -0.0101722
-0.000341395 -0.00320067 -0.0118056
-0.00034469 -0.00325988 -0.0120555
-0.000327978 -0.00328692 -0.012051
-0.000303811 -0.00330083 -0.0120269
-0.000277435 -0.00330926 -0.0120137
-0.00025041 -0.00331521 -0.0120128
-0.000222506 -0.00331956 -0.0120236
-0.000192619 -0.00332213 -0.0120455
-0.000159128 -0.00332214 -0.012078
-0.000120057 -0.00331834 -0.0121205
-7.33251e-05 -0.00330912 -0.0121712
-1.7072e-05 -0.00329246 -0.0122281
4.98961e-05 -0.00326606 -0.0122882
0.000127322 -0.00322758 -0.0123465
0.000211148 -0.00317464 -0.0123697
0.000284868 -0.00310224 -0.0121173
0.000291721 -0.00297158 -0.0104377
0.000145861 -0.00237273 -0.00432682
-0.000204517 -0.00279753 -0.00637863
-0.000350167 -0.00364583 -0.0136705
-0.000406028 -0.00384217 -0.0156037
-0.00040893 -0.00391502 -0.0159047
-0.000388213 -0.00394812 -0.0159066
-0.000358814 -0.00396538 -0.0158831
-0.000326927 -0.00397609 -0.01587
-0.000294427 -0.00398386 -0.0158696
-0.000261083 -0.00398977 -0.0158812
-0.00022557 -0.00399368 -0.0159043
-0.000185947 -0.00399467 -0.0159385
-0.000139858 -0.00399121 -0.0159827
-8.47228e-05 -0.00398129 -0.0160353
-1.81727e-05 -0.00396236 -0.0160935
6.13892e-05 -0.00393146 -0.016154
0.000153753 -0.00388556 -0.0162108
0.000254198 -0.00382158 -0.0162257
0.000343151 -0.00373233 -0.0159209
0.000353465 -0.00356269 -0.0139416
0.000176732 -0.00279623 -0.00651494
-0.000241955 -0.00313348 -0.00911019
-0.000412767 -0.00415894 -0.0179963
-0.000477242 -0.00439991 -0.0202917
-0.000479457 -0.00448652 -0.0206547
-0.000454146 -0.00452525 -0.0206651
-0.0004189 -0.0045455 -0.0206429
-0.000380973 -0.0045583 -0.0206306
-0.000342569 -0.0045679 -0.020631
-0.000303477 -0.00457556 -0.0206436
-0.000262161 -0.00458116 -0.0206681
-0.000216269 -0.00458369 -0.0207038
-0.000162949 -0.00458142 -0.0207496
-9.9028e-05 -0.00457187 -0.0208035
-2.14421e-05 -0.00455188 -0.0208626
7.19666e-05 -0.0045177 -0.0209226
0.000181178 -0.00446534 -0.0209769
0.000300657 -0.00439066 -0.0209811
0.000407272 -0.00428347 -0.0206132
0.000421662 -0.00407038 -0.0182724
0.000210831 -0.00313512 -0.009249
-0.00028222 -0.00331254 -0.0124713
-0.000479973 -0.00449828 -0.0232705
-0.000553298 -0.00478395 -0.0259985
-0.000554307 -0.00488309 -0.0264362
-0.000523716 -0.00492619 -0.0264575
-0.000482039 -0.00494857 -0.0264376
-0.000437687 -0.00496293 -0.0264266
-0.000393176 -0.00497409 -0.0264283
-0.000348285 -0.00498354 -0.0264422
-0.000301293 -0.00499115 -0.0264681
-0.000249448 -0.00499588 -0.0265051
-0.000189267 -0.00499586 -0.0265522
-0.000116817 -0.00498827 -0.0266071
-2.81443e-05 -0.00496929 -0.0266661
7.97825e-05 -0.00493417 -0.0267247
0.000207377 -0.00487763 -0.0267749
0.000348316 -0.00479391 -0.0267657
0.00047517 -0.00466884 -0.026322
0.000494713 -0.0044094 -0.0235499
0.000247356 -0.00331866 -0.0126115
-0.000323516 -0.00323908 -0.0165248
-0.000548554 -0.00454512 -0.0295892
-0.000630086 -0.00487091 -0.0328279
-0.00062902 -0.00497924 -0.0333539
-0.000592483 -0.00502417 -0.0333885
-0.000543972 -0.00504707 -0.0333718
-0.000493081 -0.00506198 -0.0333627
-0.000442654 -0.0050741 -0.0333661
-0.000392408 -0.00508503 -0.0333816
-0.000340441 -0.00509477 -0.0334088
-0.000283653 -0.00510235 -0.0334471
-0.000217918 -0.0051059 -0.0334951
-0.00013834 -0.00510245 -0.0335503
-3.9783e-05 -0.00508759 -0.0336087
8.20831e-05 -0.00505547 -0.0336648
0.000228565 -0.00499912 -0.0337096
0.000392819 -0.00491031 -0.0336841
0.000542606 -0.0047696 -0.0331509
0.000568958 -0.00446386 -0.0298699
0.000284479 -0.00325101 -0.0166647
-0.000362407 -0.00279326 -0.02129
-0.000612372 -0.00414842 -0.0369937
-0.000700029 -0.00450272 -0.0408261
-0.000695529 -0.00461367 -0.0414539
-0.00065251 -0.00465612 -0.0415036
-0.000597213 -0.00467687 -0.0414905
-0.000540194 -0.00469073 -0.0414835
-0.000484611 -0.00470272 -0.0414886
-0.000430183 -0.00471443 -0.0415056
-0.000374855 -0.00472604 -0.0415341
-0.00031523 -0.00473689 -0.0415734
-0.000246601 -0.00474542 -0.0416221
-0.000163045 -0.00474878 -0.0416775
-5.78702e-05 -0.00474232 -0.041735
7.5098e-05 -0.0047192 -0.0417885
0.000238877 -0.00467042 -0.0418275
0.000426792 -0.00458422 -0.0417839
0.000601782 -0.00443389 -0.0411474
0.000637406 -0.00408698 -0.0372743
0.000318703 -0.00281184 -0.0214278
-0.000393093 -0.00183934 -0.0267175
-0.000661085 -0.00313228 -0.0454361
-0.000750483 -0.00349309 -0.0499452
-0.000740563 -0.0035955 -0.0506865
-0.000690856 -0.00362893 -0.0507511
-0.000629656 -0.00364368 -0.0507406
-0.000567932 -0.00365405 -0.0507353
-0.000508958 -0.00366425 -0.0507417
-0.000452549 -0.00367551 -0.0507598
-0.00039666 -0.00368823 -0.0507892
-0.000337777 -0.0037023 -0.0508292
-0.000270777 -0.00371689 -0.0508786
-0.000188761 -0.00372991 -0.0509344
-8.33267e-05 -0.00373708 -0.0509919
5.426e-05 -0.00373115 -0.0510444
0.000229949 -0.00370115 -0.0510799
0.000438814 -0.00363069 -0.0510193
0.000639686 -0.0034833 -0.0502679
0.000688304 -0.00310823 -0.0457183
0.000344152 -0.00186423 -0.0268516
-0.000406155 -0.0002466 -0.032666
-0.000678019 -0.0013179 -0.0547483
-0.000761523 -0.00164866 -0.0600111
-0.000743698 -0.00172515 -0.0608731
-0.000687902 -0.00174055 -0.0609493
-0.000623032 -0.00174447 -0.0609385
-0.000559627 -0.00174832 -0.0609327
-0.000500672 -0.00175444 -0.0609391
-0.000446064 -0.00176339 -0.0609572
-0.000394008 -0.00177573 -0.0609866
-0.000341222 -0.00179215 -0.061027
-0.000282581 -0.0018131 -0.0610773
-0.000210588 -0.00183801 -0.0611348
-0.000115246 -0.0018642 -0.061195
1.52006e-05 -0.00188527 -0.0612511
0.000191276 -0.00188923 -0.0612895
0.000412413 -0.00185472 -0.0612185
0.000636414 -0.00173265 -0.0603462
0.000702863 -0.00135538 -0.0550393
0.000351431 -0.000275328 -0.032795
-0.00038725 0.00207226 -0.0389037
-0.000637676 0.00143672 -0.0646349
-0.000703221 0.00119257 -0.070713
-0.000674995 0.00116695 -0.0716953
-0.000615584 0.00118106 -0.0717755
-0.000551634 0.00119334 -0.0717586
-0.000491981 0.00119916 -0.0717485
-0.000438802 0.00119964 -0.071752
-0.000391985 0.00119538 -0.0717681
-0.000350218 0.00118567 -0.0717962
-0.000310929 0.00116882 -0.0718363
-0.000269675 0.00114264 -0.0718879
-0.000219266 0.00110521 -0.0719495
-0.000148915 0.00105612 -0.0720175
-4.39798e-05 0.00099856 -0.0720859
0.000111907 0.000942912 -0.07214
0.000326527 0.000913721 -0.0720733
0.000563149 0.000974187 -0.0710834
0.000652905 0.00130685 -0.0649507
0.000326453 0.00204566 -0.0390268
-0.000313659 0.00509814 -0.0451289
-0.000501077 0.00516926 -0.074685
-0.000531384 0.00509441 -0.0816154
-0.000491407 0.00515222 -0.082709
-0.000434479 0.00520824 -0.0827813
-0.000380176 0.0052416 -0.0827503
-0.00033364 0.00525973 -0.0827304
-0.000295579 0.0052691 -0.0827271
-0.000265721 0.00527197 -0.0827382
-0.000243413 0.0052676 -0.0827628
-0.000227291 0.00525326 -0.0828015
-0.000214524 0.00522478 -0.082855
-0.000199644 0.00517707 -0.0829236
-0.00017297 0.00510501 -0.0830062
-0.00011874 0.00500558 -0.0830992
-1.49878e-05 0.00488252 -0.0831882
0.000158346 0.00475746 -0.08315
0.000381176 0.00470323 -0.082057
0.000496631 0.00491189 -0.0750515
0.000248316 0.00508403 -0.0452466
-0.00014693 0.00860454 -0.0507568
-0.000207187 0.00970571 -0.0838883
-0.000181233 0.00991352 -0.0916157
-0.000132569 0.0100914 -0.0927979
-9.07659e-05 0.010199 -0.0928477
-6.15254e-05 0.0102557 -0.0927934
-4.3686e-05 0.0102871 -0.092758
-3.56563e-05 0.0103066 -0.0927437
-3.67334e-05 0.0103183 -0.0927465
-4.6904e-05 0.0103216 -0.0927652
-6.63503e-05 0.0103131 -0.0928011
-9.47272e-05 0.0102869 -0.0928567
-0.000130072 0.0102346 -0.0929351
-0.000166796 0.0101459 -0.0930394
-0.000192405 0.0100086 -0.0931708
-0.000183673 0.00981339 -0.0933173
-0.000108496 0.00956661 -0.0933379
4.40867e-05 0.00933305 -0.0921727
0.000171006 0.00929164 -0.0843375
8.5503e-05 0.00861663 -0.0508718
0.000177678 0.0119897 -0.0529827
0.0003352 0.014455 -0.0868033
0.000435435 0.0150751 -0.0946241
0.000478529 0.0154012 -0.0957766
0.000481271 0.0155613 -0.0957844
0.000459893 0.0156385 -0.0957011
0.000424333 0.0156813 -0.0956471
0.000379338 0.0157097 -0.0956197
0.000326516 0.01573 -0.0956125
0.000265574 0.0157417 -0.0956238
0.000194917 0.0157411 -0.0956556
0.000111995 0.0157217 -0.0957124
1.38208e-05 0.0156732 -0.0958009
-0.000101559 0.0155808 -0.0959298
-0.000231723 0.0154236 -0.0961075
-0.000363543 0.0151744 -0.0963275
-0.000465014 0.0148089 -0.0964396
-0.000489467 0.0143473 -0.0953267
-0.000415785 0.0138903 -0.0873538
-0.000207892 0.0120365 -0.0530978
0.000735423 0.0140099 -0.0375127
0.00120908 0.018003 -0.0569824
0.00138058 0.0191026 -0.0611253
0.00138312 0.0195655 -0.0615971
0.00130743 0.0197612 -0.0614862
0.0011982 0.0198489 -0.0613716
0.0010752 0.019897 -0.0613028
0.000946798 0.01993 -0.0612656
0.000816032 0.019955 -0.0612505
0.00068292 0.0199721 -0.0612555
0.00054505 0.0199782 -0.061283
0.000397415 0.0199674 -0.0613391
0.000231978 0.0199301 -0.0614334
3.731e-05 0.0198508 -0.0615796
-0.000200852 0.0197042 -0.0617945
-0.000496042 0.0194497 -0.062085
-0.000848436 0.0190273 -0.0623602
-0.00120669 0.0183728 -0.0619439
-0.00135006 0.0173881 -0.0576044
-0.00067503 0.0140737 -0.0376434
0.00148148 0.0126307 0.0508314
0.00227626 0.0174059 0.0915493
0.00244815 0.0187208 0.101247
0.0023408 0.0192021 0.103252
0.00213455 0.0193867 0.103722
0.0019002 0.019465 0.103882
0.00166394 0.0195068 0.103956
0.00143565 0.0195352 0.103994
0.00121865 0.0195565 0.10401
0.00101265 0.0195715 0.104007
0.000814298 0.0195784 0.103982
0.000616833 0.0195736 0.103931
0.000408704 0.0195502 0.103842
0.000171124 0.0194968 0.103699
-0.000126605 0.0193927 0.103479
-0.000534068 0.0192002 0.103138
-0.00112176 0.0188494 0.1025
-0.00191517 0.0182154 0.100456
-0.00250704 0.0169682 0.0909597
-0.00125352 0.0126557 0.0506215
0.00163801 0.00631537 0.389245
0.00235502 0.00870296 0.532301
0.00234432 0.00936038 0.556703
0.00208086 0.00960104 0.560791
0.00177593 0.00969333 0.561527
0.00149266 0.00973249 0.561694
0.00124376 0.00975342 0.561749
0.00102785 0.00976759 0.561772
0.00084019 0.00977823 0.561779
0.000675104 0.00978574 0.561775
0.000526232 0.00978922 0.561757
0.000385798 0.00978678 0.561721
0.000243082 0.0097751 0.561659
8.12149e-05 0.00974838 0.561558
-0.000129859 0.00969635 0.561391
-0.000448811 0.0096001 0.561082
-0.000984489 0.00942471 0.560215
-0.00184183 0.00910769 0.556104
-0.00260551 0.00848408 0.531843
-0.00130275 0.00632786 0.388894
-1.63807e-05 -0.000218564 0.00249613
-3.24094e-05 -0.000258303 0.00174735
-3.96475e-05 -0.000269708 0.00143569
-4.00806e-05 -0.000274289 0.0014099
-3.82076e-05 -0.000275814 0.00143401
-3.67044e-05 -0.000276216 0.00145305
-3.64929e-05 -0.000276317 0.00146175
-3.75097e-05 -0.000276388 0.00146145
-3.92084e-05 -0.000276479 0.00145312
-4.08268e-05 -0.000276573 0.00143716
-4.14644e-05 -0.000276581 0.00141368
-4.01901e-05 -0.000276385 0.00138285
-3.60963e-05 -0.000275836 0.00134509
-2.84536e-05 -0.000274713 0.0013011
-1.71218e-05 -0.000272766 0.0012519
-3.13231e-06 -0.000269635 0.00119951
1.04006e-05 -0.000264908 0.00115466
1.66342e-05 -0.000258212 0.00118244
6.17075e-06 -0.000249045 0.00153651
3.08537e-06 -0.000217507 0.00238302
-3.08993e-05 -0.000584887 0.00143956
-5.89435e-05 -0.000704666 -0.000927974
-7.1871e-05 -0.000734169 -0.00172571
-7.42301e-05 -0.000745856 -0.0018323
-7.24994e-05 -0.000750256 -0.00180881
-7.0319e-05 -0.000751848 -0.00178274
-6.89929e-05 -0.000752531 -0.00176909
-6.8589e-05 -0.000753019 -0.0017671
-6.85927e-05 -0.000753464 -0.00177567
-6.81611e-05 -0.000753791 -0.00179435
-6.62641e-05 -0.000753813 -0.00182294
-6.17792e-05 -0.00075326 -0.00186124
-5.35214e-05 -0.000751723 -0.00190874
-4.04571e-05 -0.000748693 -0.00196451
-2.20888e-05 -0.000743515 -0.00202721
8.00099e-07 -0.000735433 -0.00209378
2.49482e-05 -0.000723573 -0.00214304
4.18842e-05 -0.000707135 -0.00203534
3.57504e-05 -0.000683136 -0.00118506
1.78752e-05 -0.000583889 0.00131283
-5.19891e-05 -0.00104417 0.00046487
-9.32507e-05 -0.00128016 -0.00279536
-0.00011085 -0.00133328 -0.00382568
-0.000113323 -0.00135363 -0.00397008
-0.000109749 -0.00136177 -0.00394873
-0.000104977 -0.00136512 -0.00392096
-0.000100829 -0.00136683 -0.00390599
-9.7515e-05 -0.00136803 -0.00390345
-9.45045e-05 -0.00136904 -0.00391223
-9.09021e-05 -0.00136976 -0.00393187
-8.55685e-05 -0.00136987 -0.00396217
-7.71708e-05 -0.00136889 -0.00400286
-6.42973e-05 -0.00136614 -0.00405331
-4.55922e-05 -0.00136078 -0.00411239
-2.02637e-05 -0.00135171 -0.00417841
1.12209e-05 -0.00133778 -0.00424761
4.5582e-05 -0.00131773 -0.00429449
7.31227e-05 -0.00129013 -0.00414769
7.22433e-05 -0.00124626 -0.00306167
3.61216e-05 -0.00104309 0.000336679
-7.50654e-05 -0.00157625 -0.000536905
-0.00013123 -0.00196647 -0.00453697
-0.000154209 -0.00205009 -0.0057431
-0.00015676 -0.0020808 -0.00591569
-0.000150904 -0.00209346 -0.00589617
-0.000142978 -0.0020991 -0.00586718
-0.000135364 -0.00210218 -0.00585125
-0.000128511 -0.00210442 -0.00584839
-0.000121932 -0.00210624 -0.00585749
-0.000114625 -0.00210752 -0.00587811
-0.000105278 -0.00210782 -0.00591005
-9.23537e-05 -0.00210643 -0.00595297
-7.41224e-05 -0.00210237 -0.00600608
-4.88846e-05 -0.00209442 -0.00606798
-1.55473e-05 -0.00208108 -0.00613649
2.55951e-05 -0.0020607 -0.006207
7.10428e-05 -0.0020316 -0.00625058
0.000109434 -0.00199128 -0.0060731
0.000112746 -0.00192084 -0.00480892
5.63732e-05 -0.00157528 -0.000668285
-0.000100263 -0.0021743 -0.001812
-0.000173147 -0.00275831 -0.00668176
-0.000202173 -0.0028807 -0.00809081
-0.000204737 -0.00292371 -0.00829653
-0.000196244 -0.0029417 -0.00827954
-0.000184684 -0.00295013 -0.00824943
-0.000173199 -0.002955 -0.00823257
-0.000162432 -0.00295856 -0.00822939
-0.000151896 -0.00296146 -0.00823886
-0.000140496 -0.00296353 -0.00826053
-0.000126708 -0.00296419 -0.00829421
-0.00010869 -0.00296249 -0.00833953
-8.43792e-05 -0.00295716 -0.0083955
-5.17088e-05 -0.0029465 -0.0084604
-9.20875e-06 -0.00292855 -0.00853152
4.29567e-05 -0.00290115 -0.00860325
0.000100814 -0.00286208 -0.00864257
0.000150959 -0.00280699 -0.00842922
0.00015786 -0.00270169 -0.00695984
7.89299e-05 -0.00217376 -0.00194757
-0.000128527 -0.00283002 -0.00347395
-0.000220436 -0.00364737 -0.00942592
-0.000256275 -0.0038177 -0.0110858
-0.000258729 -0.0038751 -0.011333
-0.000247108 -0.00389916 -0.0113197
-0.000231373 -0.00391084 -0.0112887
-0.00021545 -0.00391784 -0.0112711
-0.000200271 -0.00392305 -0.0112677
-0.00018533 -0.0039273 -0.0112776
-0.000169383 -0.00393043 -0.0113004
-0.000150661 -0.0039317 -0.0113359
-0.000126984 -0.00392993 -0.0113836
-9.58323e-05 -0.00392345 -0.0114425
-5.46686e-05 -0.00391012 -0.0115104
-1.65172e-06 -0.00388737 -0.0115841
6.31978e-05 -0.00385243 -0.0116569
0.000135314 -0.00380236 -0.0116908
0.00019871 -0.00373005 -0.0114335
0.000209117 -0.00358043 -0.009711
0.000104559 -0.00283042 -0.00361393
-0.000160581 -0.0035252 -0.00561637
-0.000274228 -0.00461303 -0.0129039
-0.000317795 -0.00484084 -0.0148713
-0.000319976 -0.00491462 -0.0151698
-0.000304647 -0.00494533 -0.015162
-0.000284054 -0.0049606 -0.0151307
-0.000263049 -0.00497 -0.0151126
-0.000242854 -0.00497712 -0.0151093
-0.000222981 -0.004983 -0.0151198
-0.000201996 -0.0049875 -0.0151438
-0.000177829 -0.00498974 -0.015181
-0.00014787 -0.00498828 -0.0152311
-0.000109084 -0.00498105 -0.0152927
-5.83314e-05 -0.00496535 -0.0153633
6.74726e-06 -0.00493788 -0.0154391
8.62814e-05 -0.0048951 -0.0155123
0.000174975 -0.00483307 -0.0155391
0.000253637 -0.00474092 -0.0152279
0.000267718 -0.00453678 -0.0131959
0.000133859 -0.00352725 -0.00576044
-0.000196813 -0.00422418 -0.00834261
-0.000335097 -0.00561378 -0.0172599
-0.000387291 -0.00590824 -0.0196002
-0.000388972 -0.00599999 -0.0199619
-0.000369295 -0.00603755 -0.0199618
-0.000343086 -0.00605643 -0.0199311
-0.000316285 -0.00606834 -0.0199132
-0.000290445 -0.00607755 -0.0199103
-0.000265093 -0.00608532 -0.0199217
-0.00023861 -0.00609153 -0.0199469
-0.000208574 -0.00609519 -0.0199857
-0.000171858 -0.00609463 -0.0200378
-0.000124775 -0.00608738 -0.0201015
-6.34018e-05 -0.00607007 -0.0201741
1.52981e-05 -0.00603855 -0.0202511
0.000111728 -0.00598823 -0.0203233
0.000219642 -0.00591382 -0.0203404
0.000316038 -0.00579926 -0.0199634
0.000334227 -0.00553025 -0.017557
0.000167114 -0.00422889 -0.00848989
-0.000237106 -0.00486588 -0.0117594
-0.000402698 -0.00657743 -0.0226434
-0.000464158 -0.00694596 -0.0254313
-0.000464946 -0.00705629 -0.0258703
-0.00044015 -0.00710015 -0.0258809
-0.000407552 -0.00712224 -0.025852