# vtk DataFile Version 2.0 
Visualization 
ASCII 
DATASET STRUCTURED_GRID 
DIMENSIONS 21 21 11
POINTS 4851 float
-0.1 -0.1 0.9
0 -0.1 0.9
0.1 -0.1 0.9
0.2 -0.1 0.9
0.3 -0.1 0.9
0.4 -0.1 0.9
0.5 -0.1 0.9
0.6 -0.1 0.9
0.7 -0.1 0.9
0.8 -0.1 0.9
0.9 -0.1 0.9
1 -0.1 0.9
1.1 -0.1 0.9
1.2 -0.1 0.9
1.3 -0.1 0.9
1.4 -0.1 0.9
1.5 -0.1 0.9
1.6 -0.1 0.9
1.7 -0.1 0.9
1.8 -0.1 0.9
1.9 -0.1 0.9
-0.1 0 0.9
0 0 0.9
0.1 0 0.9
0.2 0 0.9
0.3 0 0.9
0.4 0 0.9
0.5 0 0.9
0.6 0 0.9
0.7 0 0.9
0.8 0 0.9
0.9 0 0.9
1 0 0.9
1.1 0 0.9
1.2 0 0.9
1.3 0 0.9
1.4 0 0.9
1.5 0 0.9
1.6 0 0.9
1.7 0 0.9
1.8 0 0.9
1.9 0 0.9
-0.1 0.1 0.9
0 0.1 0.9
0.1 0.1 0.9
0.2 0.1 0.9
0.3 0.1 0.9
0.4 0.1 0.9
0.5 0.1 0.9
0.6 0.1 0.9
0.7 0.1 0.9
0.8 0.1 0.9
0.9 0.1 0.9
1 0.1 0.9
1.1 0.1 0.9
1.2 0.1 0.9
1.3 0.1 0.9
1.4 0.1 0.9
1.5 0.1 0.9
1.6 0.1 0.9
1.7 0.1 0.9
1.8 0.1 0.9
1.9 0.1 0.9
-0.1 0.2 0.9
0 0.2 0.9
0.1 0.2 0.9
0.2 0.2 0.9
0.3 0.2 0.9
0.4 0.2 0.9
0.5 0.2 0.9
0.6 0.2 0.9
0.7 0.2 0.9
0.8 0.2 0.9
0.9 0.2 0.9
1 0.2 0.9
1.1 0.2 0.9
1.2 0.2 0.9
1.3 0.2 0.9
1.4 0.2 0.9
1.5 0.2 0.9
1.6 0.2 0.9
1.7 0.2 0.9
1.8 0.2 0.9
1.9 0.2 0.9
-0.1 0.3 0.9
0 0.3 0.9
0.1 0.3 0.9
0.2 0.3 0.9
0.3 0.3 0.9
0.4 0.3 0.9
0.5 0.3 0.9
0.6 0.3 0.9
0.7 0.3 0.9
0.8 0.3 0.9
0.9 0.3 0.9
1 0.3 0.9
1.1 0.3 0.9
1.2 0.3 0.9
1.3 0.3 0.9
1.4 0.3 0.9
1.5 0.3 0.9
1.6 0.3 0.9
1.7 0.3 0.9
1.8 0.3 0.9
1.9 0.3 0.9
-0.1 0.4 0.9
0 0.4 0.9
0.1 0.4 0.9
0.2 0.4 0.9
0.3 0.4 0.9
0.4 0.4 0.9
0.5 0.4 0.9
0.6 0.4 0.9
0.7 0.4 0.9
0.8 0.4 0.9
0.9 0.4 0.9
1 0.4 0.9
1.1 0.4 0.9
1.2 0.4 0.9
1.3 0.4 0.9
1.4 0.4 0.9
1.5 0.4 0.9
1.6 0.4 0.9
1.7 0.4 0.9
1.8 0.4 0.9
1.9 0.4 0.9
-0.1 0.5 0.9
0 0.5 0.9
0.1 0.5 0.9
0.2 0.5 0.9
0.3 0.5 0.9
0.4 0.5 0.9
0.5 0.5 0.9
0.6 0.5 0.9
0.7 0.5 0.9
0.8 0.5 0.9
0.9 0.5 0.9
1 0.5 0.9
1.1 0.5 0.9
1.2 0.5 0.9
1.3 0.5 0.9
1.4 0.5 0.9
1.5 0.5 0.9
1.6 0.5 0.9
1.7 0.5 0.9
1.8 0.5 0.9
1.9 0.5 0.9
-0.1 0.6 0.9
0 0.6 0.9
0.1 0.6 0.9
0.2 0.6 0.9
0.3 0.6 0.9
0.4 0.6 0.9
0.5 0.6 0.9
0.6 0.6 0.9
0.7 0.6 0.9
0.8 0.6 0.9
0.9 0.6 0.9
1 0.6 0.9
1.1 0.6 0.9
1.2 0.6 0.9
1.3 0.6 0.9
1.4 0.6 0.9
1.5 0.6 0.9
1.6 0.6 0.9
1.7 0.6 0.9
1.8 0.6 0.9
1.9 0.6 0.9
-0.1 0.7 0.9
0 0.7 0.9
0.1 0.7 0.9
0.2 0.7 0.9
0.3 0.7 0.9
0.4 0.7 0.9
0.5 0.7 0.9
0.6 0.7 0.9
0.7 0.7 0.9
0.8 0.7 0.9
0.9 0.7 0.9
1 0.7 0.9
1.1 0.7 0.9
1.2 0.7 0.9
1.3 0.7 0.9
1.4 0.7 0.9
1.5 0.7 0.9
1.6 0.7 0.9
1.7 0.7 0.9
1.8 0.7 0.9
1.9 0.7 0.9
-0.1 0.8 0.9
0 0.8 0.9
0.1 0.8 0.9
0.2 0.8 0.9
0.3 0.8 0.9
0.4 0.8 0.9
0.5 0.8 0.9
0.6 0.8 0.9
0.7 0.8 0.9
0.8 0.8 0.9
0.9 0.8 0.9
1 0.8 0.9
1.1 0.8 0.9
1.2 0.8 0.9
1.3 0.8 0.9
1.4 0.8 0.9
1.5 0.8 0.9
1.6 0.8 0.9
1.7 0.8 0.9
1.8 0.8 0.9
1.9 0.8 0.9
-0.1 0.9 0.9
0 0.9 0.9
0.1 0.9 0.9
0.2 0.9 0.9
0.3 0.9 0.9
0.4 0.9 0.9
0.5 0.9 0.9
0.6 0.9 0.9
0.7 0.9 0.9
0.8 0.9 0.9
0.9 0.9 0.9
1 0.9 0.9
1.1 0.9 0.9
1.2 0.9 0.9
1.3 0.9 0.9
1.4 0.9 0.9
1.5 0.9 0.9
1.6 0.9 0.9
1.7 0.9 0.9
1.8 0.9 0.9
1.9 0.9 0.9
-0.1 1 0.9
0 1 0.9
0.1 1 0.9
0.2 1 0.9
0.3 1 0.9
0.4 1 0.9
0.5 1 0.9
0.6 1 0.9
0.7 1 0.9
0.8 1 0.9
0.9 1 0.9
1 1 0.9
1.1 1 0.9
1.2 1 0.9
1.3 1 0.9
1.4 1 0.9
1.5 1 0.9
1.6 1 0.9
1.7 1 0.9
1.8 1 0.9
1.9 1 0.9
-0.1 1.1 0.9
0 1.1 0.9
0.1 1.1 0.9
0.2 1.1 0.9
0.3 1.1 0.9
0.4 1.1 0.9
0.5 1.1 0.9
0.6 1.1 0.9
0.7 1.1 0.9
0.8 1.1 0.9
0.9 1.1 0.9
1 1.1 0.9
1.1 1.1 0.9
1.2 1.1 0.9
1.3 1.1 0.9
1.4 1.1 0.9
1.5 1.1 0.9
1.6 1.1 0.9
1.7 1.1 0.9
1.8 1.1 0.9
1.9 1.1 0.9
-0.1 1.2 0.9
0 1.2 0.9
0.1 1.2 0.9
0.2 1.2 0.9
0.3 1.2 0.9
0.4 1.2 0.9
0.5 1.2 0.9
0.6 1.2 0.9
0.7 1.2 0.9
0.8 1.2 0.9
0.9 1.2 0.9
1 1.2 0.9
1.1 1.2 0.9
1.2 1.2 0.9
1.3 1.2 0.9
1.4 1.2 0.9
1.5 1.2 0.9
1.6 1.2 0.9
1.7 1.2 0.9
1.8 1.2 0.9
1.9 1.2 0.9
-0.1 1.3 0.9
0 1.3 0.9
0.1 1.3 0.9
0.2 1.3 0.9
0.3 1.3 0.9
0.4 1.3 0.9
0.5 1.3 0.9
0.6 1.3 0.9
0.7 1.3 0.9
0.8 1.3 0.9
0.9 1.3 0.9
1 1.3 0.9
1.1 1.3 0.9
1.2 1.3 0.9
1.3 1.3 0.9
1.4 1.3 0.9
1.5 1.3 0.9
1.6 1.3 0.9
1.7 1.3 0.9
1.8 1.3 0.9
1.9 1.3 0.9
-0.1 1.4 0.9
0 1.4 0.9
0.1 1.4 0.9
0.2 1.4 0.9
0.3 1.4 0.9
0.4 1.4 0.9
0.5 1.4 0.9
0.6 1.4 0.9
0.7 1.4 0.9
0.8 1.4 0.9
0.9 1.4 0.9
1 1.4 0.9
1.1 1.4 0.9
1.2 1.4 0.9
1.3 1.4 0.9
1.4 1.4 0.9
1.5 1.4 0.9
1.6 1.4 0.9
1.7 1.4 0.9
1.8 1.4 0.9
1.9 1.4 0.9
-0.1 1.5 0.9
0 1.5 0.9
0.1 1.5 0.9
0.2 1.5 0.9
0.3 1.5 0.9
0.4 1.5 0.9
0.5 1.5 0.9
0.6 1.5 0.9
0.7 1.5 0.9
0.8 1.5 0.9
0.9 1.5 0.9
1 1.5 0.9
1.1 1.5 0.9
1.2 1.5 0.9
1.3 1.5 0.9
1.4 1.5 0.9
1.5 1.5 0.9
1.6 1.5 0.9
1.7 1.5 0.9
1.8 1.5 0.9
1.9 1.5 0.9
-0.1 1.6 0.9
0 1.6 0.9
0.1 1.6 0.9
0.2 1.6 0.9
0.3 1.6 0.9
0.4 1.6 0.9
0.5 1.6 0.9
0.6 1.6 0.9
0.7 1.6 0.9
0.8 1.6 0.9
0.9 1.6 0.9
1 1.6 0.9
1.1 1.6 0.9
1.2 1.6 0.9
1.3 1.6 0.9
1.4 1.6 0.9
1.5 1.6 0.9
1.6 1.6 0.9
1.7 1.6 0.9
1.8 1.6 0.9
1.9 1.6 0.9
-0.1 1.7 0.9
0 1.7 0.9
0.1 1.7 0.9
0.2 1.7 0.9
0.3 1.7 0.9
0.4 1.7 0.9
0.5 1.7 0.9
0.6 1.7 0.9
0.7 1.7 0.9
0.8 1.7 0.9
0.9 1.7 0.9
1 1.7 0.9
1.1 1.7 0.9
1.2 1.7 0.9
1.3 1.7 0.9
1.4 1.7 0.9
1.5 1.7 0.9
1.6 1.7 0.9
1.7 1.7 0.9
1.8 1.7 0.9
1.9 1.7 0.9
-0.1 1.8 0.9
0 1.8 0.9
0.1 1.8 0.9
0.2 1.8 0.9
0.3 1.8 0.9
0.4 1.8 0.9
0.5 1.8 0.9
0.6 1.8 0.9
0.7 1.8 0.9
0.8 1.8 0.9
0.9 1.8 0.9
1 1.8 0.9
1.1 1.8 0.9
1.2 1.8 0.9
1.3 1.8 0.9
1.4 1.8 0.9
1.5 1.8 0.9
1.6 1.8 0.9
1.7 1.8 0.9
1.8 1.8 0.9
1.9 1.8 0.9
-0.1 1.9 0.9
0 1.9 0.9
0.1 1.9 0.9
0.2 1.9 0.9
0.3 1.9 0.9
0.4 1.9 0.9
0.5 1.9 0.9
0.6 1.9 0.9
0.7 1.9 0.9
0.8 1.9 0.9
0.9 1.9 0.9
1 1.9 0.9
1.1 1.9 0.9
1.2 1.9 0.9
1.3 1.9 0.9
1.4 1.9 0.9
1.5 1.9 0.9
1.6 1.9 0.9
1.7 1.9 0.9
1.8 1.9 0.9
1.9 1.9 0.9
-0.1 -0.1 1
0 -0.1 1
0.1 -0.1 1
0.2 -0.1 1
0.3 -0.1 1
0.4 -0.1 1
0.5 -0.1 1
0.6 -0.1 1
0.7 -0.1 1
0.8 -0.1 1
0.9 -0.1 1
1 -0.1 1
1.1 -0.1 1
1.2 -0.1 1
1.3 -0.1 1
1.4 -0.1 1
1.5 -0.1 1
1.6 -0.1 1
1.7 -0.1 1
1.8 -0.1 1
1.9 -0.1 1
-0.1 0 1
0 0 1
0.1 0 1
0.2 0 1
0.3 0 1
0.4 0 1
0.5 0 1
0.6 0 1
0.7 0 1
0.8 0 1
0.9 0 1
1 0 1
1.1 0 1
1.2 0 1
1.3 0 1
1.4 0 1
1.5 0 1
1.6 0 1
1.7 0 1
1.8 0 1
1.9 0 1
-0.1 0.1 1
0 0.1 1
0.1 0.1 1
0.2 0.1 1
0.3 0.1 1
0.4 0.1 1
0.5 0.1 1
0.6 0.1 1
0.7 0.1 1
0.8 0.1 1
0.9 0.1 1
1 0.1 1
1.1 0.1 1
1.2 0.1 1
1.3 0.1 1
1.4 0.1 1
1.5 0.1 1
1.6 0.1 1
1.7 0.1 1
1.8 0.1 1
1.9 0.1 1
-0.1 0.2 1
0 0.2 1
0.1 0.2 1
0.2 0.2 1
0.3 0.2 1
0.4 0.2 1
0.5 0.2 1
0.6 0.2 1
0.7 0.2 1
0.8 0.2 1
0.9 0.2 1
1 0.2 1
1.1 0.2 1
1.2 0.2 1
1.3 0.2 1
1.4 0.2 1
1.5 0.2 1
1.6 0.2 1
1.7 0.2 1
1.8 0.2 1
1.9 0.2 1
-0.1 0.3 1
0 0.3 1
0.1 0.3 1
0.2 0.3 1
0.3 0.3 1
0.4 0.3 1
0.5 0.3 1
0.6 0.3 1
0.7 0.3 1
0.8 0.3 1
0.9 0.3 1
1 0.3 1
1.1 0.3 1
1.2 0.3 1
1.3 0.3 1
1.4 0.3 1
1.5 0.3 1
1.6 0.3 1
1.7 0.3 1
1.8 0.3 1
1.9 0.3 1
-0.1 0.4 1
0 0.4 1
0.1 0.4 1
0.2 0.4 1
0.3 0.4 1
0.4 0.4 1
0.5 0.4 1
0.6 0.4 1
0.7 0.4 1
0.8 0.4 1
0.9 0.4 1
1 0.4 1
1.1 0.4 1
1.2 0.4 1
1.3 0.4 1
1.4 0.4 1
1.5 0.4 1
1.6 0.4 1
1.7 0.4 1
1.8 0.4 1
1.9 0.4 1
-0.1 0.5 1
0 0.5 1
0.1 0.5 1
0.2 0.5 1
0.3 0.5 1
0.4 0.5 1
0.5 0.5 1
0.6 0.5 1
0.7 0.5 1
0.8 0.5 1
0.9 0.5 1
1 0.5 1
1.1 0.5 1
1.2 0.5 1
1.3 0.5 1
1.4 0.5 1
1.5 0.5 1
1.6 0.5 1
1.7 0.5 1
1.8 0.5 1
1.9 0.5 1
-0.1 0.6 1
0 0.6 1
0.1 0.6 1
0.2 0.6 1
0.3 0.6 1
0.4 0.6 1
0.5 0.6 1
0.6 0.6 1
0.7 0.6 1
0.8 0.6 1
0.9 0.6 1
1 0.6 1
1.1 0.6 1
1.2 0.6 1
1.3 0.6 1
1.4 0.6 1
1.5 0.6 1
1.6 0.6 1
1.7 0.6 1
1.8 0.6 1
1.9 0.6 1
-0.1 0.7 1
0 0.7 1
0.1 0.7 1
0.2 0.7 1
0.3 0.7 1
0.4 0.7 1
0.5 0.7 1
0.6 0.7 1
0.7 0.7 1
0.8 0.7 1
0.9 0.7 1
1 0.7 1
1.1 0.7 1
1.2 0.7 1
1.3 0.7 1
1.4 0.7 1
1.5 0.7 1
1.6 0.7 1
1.7 0.7 1
1.8 0.7 1
1.9 0.7 1
-0.1 0.8 1
0 0.8 1
0.1 0.8 1
0.2 0.8 1
0.3 0.8 1
0.4 0.8 1
0.5 0.8 1
0.6 0.8 1
0.7 0.8 1
0.8 0.8 1
0.9 0.8 1
1 0.8 1
1.1 0.8 1
1.2 0.8 1
1.3 0.8 1
1.4 0.8 1
1.5 0.8 1
1.6 0.8 1
1.7 0.8 1
1.8 0.8 1
1.9 0.8 1
-0.1 0.9 1
0 0.9 1
0.1 0.9 1
0.2 0.9 1
0.3 0.9 1
0.4 0.9 1
0.5 0.9 1
0.6 0.9 1
0.7 0.9 1
0.8 0.9 1
0.9 0.9 1
1 0.9 1
1.1 0.9 1
1.2 0.9 1
1.3 0.9 1
1.4 0.9 1
1.5 0.9 1
1.6 0.9 1
1.7 0.9 1
1.8 0.9 1
1.9 0.9 1
-0.1 1 1
0 1 1
0.1 1 1
0.2 1 1
0.3 1 1
0.4 1 1
0.5 1 1
0.6 1 1
0.7 1 1
0.8 1 1
0.9 1 1
1 1 1
1.1 1 1
1.2 1 1
1.3 1 1
1.4 1 1
1.5 1 1
1.6 1 1
1.7 1 1
1.8 1 1
1.9 1 1
-0.1 1.1 1
0 1.1 1
0.1 1.1 1
0.2 1.1 1
0.3 1.1 1
0.4 1.1 1
0.5 1.1 1
0.6 1.1 1
0.7 1.1 1
0.8 1.1 1
0.9 1.1 1
1 1.1 1
1.1 1.1 1
1.2 1.1 1
1.3 1.1 1
1.4 1.1 1
1.5 1.1 1
1.6 1.1 1
1.7 1.1 1
1.8 1.1 1
1.9 1.1 1
-0.1 1.2 1
0 1.2 1
0.1 1.2 1
0.2 1.2 1
0.3 1.2 1
0.4 1.2 1
0.5 1.2 1
0.6 1.2 1
0.7 1.2 1
0.8 1.2 1
0.9 1.2 1
1 1.2 1
1.1 1.2 1
1.2 1.2 1
1.3 1.2 1
1.4 1.2 1
1.5 1.2 1
1.6 1.2 1
1.7 1.2 1
1.8 1.2 1
1.9 1.2 1
-0.1 1.3 1
0 1.3 1
0.1 1.3 1
0.2 1.3 1
0.3 1.3 1
0.4 1.3 1
0.5 1.3 1
0.6 1.3 1
0.7 1.3 1
0.8 1.3 1
0.9 1.3 1
1 1.3 1
1.1 1.3 1
1.2 1.3 1
1.3 1.3 1
1.4 1.3 1
1.5 1.3 1
1.6 1.3 1
1.7 1.3 1
1.8 1.3 1
1.9 1.3 1
-0.1 1.4 1
0 1.4 1
0.1 1.4 1
0.2 1.4 1
0.3 1.4 1
0.4 1.4 1
0.5 1.4 1
0.6 1.4 1
0.7 1.4 1
0.8 1.4 1
0.9 1.4 1
1 1.4 1
1.1 1.4 1
1.2 1.4 1
1.3 1.4 1
1.4 1.4 1
1.5 1.4 1
1.6 1.4 1
1.7 1.4 1
1.8 1.4 1
1.9 1.4 1
-0.1 1.5 1
0 1.5 1
0.1 1.5 1
0.2 1.5 1
0.3 1.5 1
0.4 1.5 1
0.5 1.5 1
0.6 1.5 1
0.7 1.5 1
0.8 1.5 1
0.9 1.5 1
1 1.5 1
1.1 1.5 1
1.2 1.5 1
1.3 1.5 1
1.4 1.5 1
1.5 1.5 1
1.6 1.5 1
1.7 1.5 1
1.8 1.5 1
1.9 1.5 1
-0.1 1.6 1
0 1.6 1
0.1 1.6 1
0.2 1.6 1
0.3 1.6 1
0.4 1.6 1
0.5 1.6 1
0.6 1.6 1
0.7 1.6 1
0.8 1.6 1
0.9 1.6 1
1 1.6 1
1.1 1.6 1
1.2 1.6 1
1.3 1.6 1
1.4 1.6 1
1.5 1.6 1
1.6 1.6 1
1.7 1.6 1
1.8 1.6 1
1.9 1.6 1
-0.1 1.7 1
0 1.7 1
0.1 1.7 1
0.2 1.7 1
0.3 1.7 1
0.4 1.7 1
0.5 1.7 1
0.6 1.7 1
0.7 1.7 1
0.8 1.7 1
0.9 1.7 1
1 1.7 1
1.1 1.7 1
1.2 1.7 1
1.3 1.7 1
1.4 1.7 1
1.5 1.7 1
1.6 1.7 1
1.7 1.7 1
1.8 1.7 1
1.9 1.7 1
-0.1 1.8 1
0 1.8 1
0.1 1.8 1
0.2 1.8 1
0.3 1.8 1
0.4 1.8 1
0.5 1.8 1
0.6 1.8 1
0.7 1.8 1
0.8 1.8 1
0.9 1.8 1
1 1.8 1
1.1 1.8 1
1.2 1.8 1
1.3 1.8 1
1.4 1.8 1
1.5 1.8 1
1.6 1.8 1
1.7 1.8 1
1.8 1.8 1
1.9 1.8 1
-0.1 1.9 1
0 1.9 1
0.1 1.9 1
0.2 1.9 1
0.3 1.9 1
0.4 1.9 1
0.5 1.9 1
0.6 1.9 1
0.7 1.9 1
0.8 1.9 1
0.9 1.9 1
1 1.9 1
1.1 1.9 1
1.2 1.9 1
1.3 1.9 1
1.4 1.9 1
1.5 1.9 1
1.6 1.9 1
1.7 1.9 1
1.8 1.9 1
1.9 1.9 1
-0.1 -0.1 1.1
0 -0.1 1.1
0.1 -0.1 1.1
0.2 -0.1 1.1
0.3 -0.1 1.1
0.4 -0.1 1.1
0.5 -0.1 1.1
0.6 -0.1 1.1
0.7 -0.1 1.1
0.8 -0.1 1.1
0.9 -0.1 1.1
1 -0.1 1.1
1.1 -0.1 1.1
1.2 -0.1 1.1
1.3 -0.1 1.1
1.4 -0.1 1.1
1.5 -0.1 1.1
1.6 -0.1 1.1
1.7 -0.1 1.1
1.8 -0.1 1.1
1.9 -0.1 1.1
-0.1 0 1.1
0 0 1.1
0.1 0 1.1
0.2 0 1.1
0.3 0 1.1
0.4 0 1.1
0.5 0 1.1
0.6 0 1.1
0.7 0 1.1
0.8 0 1.1
0.9 0 1.1
1 0 1.1
1.1 0 1.1
1.2 0 1.1
1.3 0 1.1
1.4 0 1.1
1.5 0 1.1
[...]
CELL_DATA 4000
VECTORS velocity double 
-4.99631e-06 -0.000180454 0.00257634
-2.6668e-05 -0.000231507 0.00341161
-4.89781e-05 -0.000251167 0.00340189
-6.41714e-05 -0.000261395 0.00338941
-7.45896e-05 -0.000265437 0.00339949
-8.31267e-05 -0.000266741 0.00340353
-9.09347e-05 -0.000267119 0.00339269
-9.79646e-05 -0.000267303 0.00336729
-0.000103512 -0.000267455 0.00332906
-0.000106513 -0.000267469 0.00327954
-0.000105858 -0.000267211 0.00322018
-0.000100617 -0.000266443 0.00315298
-9.01e-05 -0.000264824 0.00308072
-7.43616e-05 -0.000262008 0.00300706
-5.46862e-05 -0.000257494 0.00293668
-3.41681e-05 -0.000250679 0.00287674
-1.90518e-05 -0.000240725 0.00284509
-2.10567e-05 -0.000226858 0.00288193
-5.19988e-05 -0.000209531 0.0029751
-2.59994e-05 -0.000164331 0.00231241
-1.95375e-05 -0.000532744 0.00321972
-6.75977e-05 -0.000703992 0.00373356
-0.000108059 -0.00075803 0.00339434
-0.000134004 -0.000784319 0.00326647
-0.000151304 -0.000795361 0.00325795
-0.000164819 -0.000799449 0.00326299
-0.000176497 -0.000800891 0.00324959
-0.000186412 -0.000801477 0.00321428
-0.000193666 -0.000801674 0.00315894
-0.000196919 -0.000801344 0.00308576
-0.0001946 -0.000800109 0.00299689
-0.000185203 -0.000797353 0.00289529
-0.000167519 -0.00079222 0.00278507
-0.000141005 -0.00078376 0.00267168
-0.00010653 -0.000770893 0.00256259
-6.70094e-05 -0.00075228 0.00247219
-2.94627e-05 -0.000726429 0.00244551
-1.05272e-05 -0.000692158 0.00260806
-3.56668e-05 -0.000647532 0.00308194
-1.78334e-05 -0.000505526 0.00285664
-5.33106e-05 -0.001005 0.00271579
-0.000129226 -0.00134699 0.00244849
-0.000182881 -0.00144502 0.00177295
-0.000212831 -0.00149069 0.00154932
-0.000230008 -0.00151054 0.0015249
-0.000241785 -0.00151849 0.00153094
-0.000251106 -0.00152163 0.00151892
-0.000258248 -0.00152295 0.00148234
-0.000262219 -0.00152332 0.00142281
-0.000261428 -0.00152258 0.00134264
-0.000253928 -0.00152002 0.00124416
-0.000237721 -0.00151462 0.00113061
-0.000211118 -0.00150489 0.00100673
-0.000173082 -0.00148913 0.000878849
-0.000123863 -0.00146562 0.000755731
-6.59122e-05 -0.00143246 0.000655884
-6.3446e-06 -0.00138772 0.000641786
3.50275e-05 -0.00133013 0.000904124
1.91176e-05 -0.00125183 0.00173342
9.55878e-06 -0.000967543 0.00233163
-9.53584e-05 -0.00156914 0.00187421
-0.000203802 -0.00213191 0.000689907
-0.000271909 -0.00228526 -0.000303285
-0.00030517 -0.0023541 -0.00060576
-0.000320528 -0.00238464 -0.000641669
-0.000328416 -0.00239747 -0.000633814
-0.00033306 -0.00240293 -0.000643632
-0.000335107 -0.0024054 -0.000679996
-0.000333515 -0.00240623 -0.000741528
-0.000326369 -0.00240527 -0.00082599
-0.000311331 -0.00240137 -0.000930902
-0.000285782 -0.00239296 -0.00105289
-0.000247411 -0.00237793 -0.0011866
-0.00019473 -0.00235376 -0.0013247
-0.000127545 -0.00231792 -0.00145709
-4.80667e-05 -0.00226789 -0.00156219
3.57991e-05 -0.00220152 -0.00156441
0.000100241 -0.00211697 -0.00121894
9.13218e-05 -0.00199579 -6.05075e-05
4.56609e-05 -0.00152168 0.0014786
-0.000145428 -0.00220976 0.000651704
-0.000292103 -0.00304425 -0.00167245
-0.000376911 -0.00326665 -0.00302898
-0.000413607 -0.00336333 -0.00341841
-0.000426258 -0.00340666 -0.00346753
-0.000429001 -0.0034255 -0.00345831
-0.000427597 -0.00343397 -0.00346591
-0.000423161 -0.00343809 -0.00350173
-0.00041461 -0.00343977 -0.00356482
-0.000399563 -0.00343886 -0.00365305
-0.000375191 -0.00343386 -0.00376377
-0.000338237 -0.00342245 -0.00389338
-0.000285635 -0.00340181 -0.00403607
-0.000215272 -0.00336849 -0.00418324
-0.000126502 -0.00331883 -0.0043231
-2.15862e-05 -0.00324959 -0.00443081
9.05378e-05 -0.00315815 -0.00441757
0.000180925 -0.00304167 -0.00398038
0.000178624 -0.00286518 -0.0024499
8.9312e-05 -0.00215256 0.000247343
-0.000205914 -0.00290329 -0.0010888
-0.000398162 -0.00405727 -0.00488719
-0.000502424 -0.00436358 -0.00669793
-0.000542647 -0.00449305 -0.00719708
-0.000551516 -0.00455128 -0.00726508
-0.000547669 -0.00457723 -0.00725603
-0.000538702 -0.00458943 -0.00726185
-0.000526299 -0.0045958 -0.00729711
-0.000509314 -0.00459886 -0.00736138
-0.000484905 -0.00459844 -0.00745282
-0.000449494 -0.00459282 -0.00756869
-0.00039915 -0.00457887 -0.00770495
-0.000329849 -0.00455276 -0.00785523
-0.00023852 -0.00450995 -0.00800979
-0.000124067 -0.00444546 -0.00815484
1.12926e-05 -0.00435486 -0.00826165
0.00015712 -0.00423478 -0.00822567
0.000278658 -0.00408028 -0.00767429
0.000284227 -0.00383441 -0.00568367
0.000142113 -0.00283734 -0.00149846
-0.000278664 -0.0036059 -0.00348717
-0.000524732 -0.00511728 -0.00918193
-0.000651363 -0.00552194 -0.0115646
-0.00069502 -0.00568886 -0.0122042
-0.00069882 -0.00576369 -0.012299
-0.000686734 -0.00579757 -0.0122926
-0.000668562 -0.00581407 -0.0122975
-0.000646614 -0.00582328 -0.0123324
-0.000619661 -0.00582839 -0.0123975
-0.000584503 -0.00582922 -0.0124912
-0.000536595 -0.00582377 -0.012611
-0.000471006 -0.00580828 -0.0127523
-0.000382621 -0.00577764 -0.0129078
-0.000267104 -0.00572585 -0.0130669
-0.000122525 -0.00564641 -0.0132134
4.89619e-05 -0.00553312 -0.0133141
0.000235338 -0.0053813 -0.0132457
0.000394582 -0.00518259 -0.0125498
0.000410565 -0.00485247 -0.00998543
0.000205282 -0.00353357 -0.00389709
-0.000364224 -0.00424515 -0.00667755
-0.000672409 -0.00613263 -0.0147674
-0.00082403 -0.00664755 -0.0178615
-0.000870674 -0.00685525 -0.0186782
-0.000867856 -0.00694751 -0.0188098
-0.000845775 -0.00698952 -0.0188093
-0.000816795 -0.00701052 -0.0188146
-0.000783876 -0.00702296 -0.0188496
-0.00074568 -0.00703083 -0.0189153
-0.000698617 -0.00703399 -0.0190101
-0.000637232 -0.00703008 -0.0191319
-0.000555222 -0.00701475 -0.0192757
-0.000445956 -0.00698165 -0.0194333
-0.000303603 -0.006923 -0.0195926
-0.000124792 -0.00683013 -0.0197354
8.86954e-05 -0.00669465 -0.0198231
0.000323175 -0.00650938 -0.0197098
0.000527931 -0.00626104 -0.0188334
0.000557795 -0.0058326 -0.0155615
0.000278898 -0.0041709 -0.00708075
-0.000461402 -0.00471337 -0.0107715
-0.000838775 -0.00696416 -0.0218201
-0.00101704 -0.00759557 -0.0257838
-0.00106566 -0.00784461 -0.02682
-0.00105439 -0.00795334 -0.0270001
-0.00102055 -0.00800275 -0.0270094
-0.000979335 -0.00802796 -0.0270166
-0.00093445 -0.00804366 -0.0270521
-0.000884391 -0.00805485 -0.0271181
-0.000825043 -0.00806159 -0.0272128
-0.000750092 -0.00806118 -0.0273343
-0.000651691 -0.00804872 -0.0274775
-0.00052127 -0.00801673 -0.0276333
-0.00035082 -0.00795553 -0.0277878
-0.000135024 -0.00785378 -0.0279206
0.00012564 -0.00769969 -0.0279872
0.00041574 -0.00748239 -0.0278145
0.00067456 -0.00718133 -0.0267162
0.000722906 -0.0066433 -0.0225851
0.000361453 -0.0046444 -0.0111597
-0.000566411 -0.00486438 -0.0158272
-0.00101676 -0.00741896 -0.0304362
-0.00122136 -0.0081631 -0.0354406
-0.00127002 -0.00844923 -0.0367418
-0.00124841 -0.00857063 -0.0369822
-0.00120137 -0.00862507 -0.0370055
-0.00114696 -0.00865334 -0.0370164
-0.0010898 -0.00867196 -0.0370527
-0.00102824 -0.00868679 -0.0371186
-0.000957536 -0.00869829 -0.0372123
-0.000870519 -0.00870374 -0.0373313
-0.000757736 -0.00869793 -0.0374707
-0.000608387 -0.00867255 -0.0376206
-0.000411567 -0.00861602 -0.0377655
-0.000158742 -0.00851385 -0.0378824
0.000151836 -0.00834984 -0.0379197
0.000503799 -0.0081073 -0.0376731
0.000825184 -0.00775529 -0.036308
0.000898061 -0.00710237 -0.0311526
0.000449031 -0.00481106 -0.016192
-0.000671665 -0.00451713 -0.0218078
-0.0011925 -0.00725192 -0.0405681
-0.00141967 -0.0080894 -0.046785
-0.0014651 -0.00840082 -0.0483956
-0.00143126 -0.00852702 -0.0487069
-0.0013704 -0.00858188 -0.0487472
-0.00130296 -0.00861084 -0.0487633
-0.0012344 -0.00863145 -0.0488008
-0.00116305 -0.00864987 -0.0488658
-0.00108369 -0.00866709 -0.0489573
-0.000988383 -0.00868089 -0.0490722
-0.000866235 -0.00868621 -0.0492056
-0.000703944 -0.00867462 -0.0493469
-0.000486986 -0.00863318 -0.0494792
-0.000202321 -0.00854423 -0.049577
0.000156045 -0.00838609 -0.0495806
0.000572349 -0.00813362 -0.0492483
0.000963172 -0.00774095 -0.0475724
0.00106812 -0.00697818 -0.041224
0.00053406 -0.00449257 -0.0221432
-0.000764333 -0.00347153 -0.028538
-0.00134261 -0.00618152 -0.0519582
-0.001583 -0.00707003 -0.059541
-0.00162015 -0.00738437 -0.0614976
-0.00157249 -0.0075023 -0.0618853
-0.0014985 -0.00755043 -0.0619425
-0.00142006 -0.0075763 -0.0619637
-0.0013429 -0.00759709 -0.0620024
-0.00126544 -0.00761845 -0.0620659
-0.00118238 -0.00764177 -0.062154
-0.00108533 -0.00766587 -0.062264
-0.00096251 -0.00768685 -0.0623906
-0.000798314 -0.00769722 -0.0625235
-0.000574111 -0.00768398 -0.0626449
-0.000270863 -0.00762729 -0.0627267
0.000124375 -0.00749959 -0.0627005
0.000599919 -0.00726449 -0.0622803
0.00106273 -0.0068552 -0.0602579
0.00120866 -0.00600492 -0.0525596
0.00060433 -0.00349052 -0.0288442
-0.000824369 -0.0015432 -0.0356766
-0.00143064 -0.00392747 -0.0640924
-0.0016669 -0.00479267 -0.0731507
-0.00168867 -0.00507328 -0.0754727
-0.00162649 -0.00516381 -0.0759342
-0.00154217 -0.00519572 -0.0760033
-0.00145734 -0.00521371 -0.0760262
-0.001377 -0.00523202 -0.0760646
-0.00129967 -0.00525485 -0.0761257
-0.00122046 -0.00528373 -0.0762096
-0.00113139 -0.00531882 -0.0763147
-0.00102071 -0.00535866 -0.0764364
-0.000871437 -0.0053983 -0.0765654
-0.000661244 -0.0054271 -0.0766844
-0.000363971 -0.00542543 -0.0767642
4.35855e-05 -0.00536153 -0.0767263
0.000559499 -0.00518606 -0.0762336
0.00108721 -0.00480491 -0.0738484
0.00128353 -0.0039173 -0.0646763
0.000641767 -0.00161957 -0.0359634
-0.000821443 0.00138018 -0.0427142
-0.00140233 -0.000276458 -0.0761901
-0.00160628 -0.00100133 -0.0867572
-0.0016038 -0.00119425 -0.0894365
-0.00152864 -0.00123225 -0.089957
-0.00144022 -0.00123707 -0.0900278
-0.00135709 -0.00124214 -0.0900461
-0.00128238 -0.00125496 -0.0900803
-0.00121451 -0.00127695 -0.090137
-0.00114951 -0.00130942 -0.0902162
-0.00108116 -0.00135421 -0.0903176
-0.000999143 -0.00141305 -0.0904387
-0.00088719 -0.00148567 -0.0905731
-0.000721006 -0.00156684 -0.090707
-0.000467934 -0.00164194 -0.0908121
-9.17493e-05 -0.0016798 -0.0908009
0.000422973 -0.00162116 -0.0902769
0.000989071 -0.00134105 -0.0875448
0.00124138 -0.000509748 -0.0768377
0.000620692 0.00123957 -0.0430041
-0.000711681 0.00525739 -0.0489727
-0.00117937 0.00483082 -0.0870725
-0.00130985 0.00441756 -0.099013
-0.0012737 0.00438396 -0.101987
-0.00119129 0.00442697 -0.102534
-0.00111 0.00445955 -0.10259
-0.00104126 0.00447143 -0.102594
-0.000985133 0.00446671 -0.102619
-0.000939757 0.00444823 -0.102668
-0.000902642 0.00441559 -0.102741
-0.000870287 0.00436518 -0.102841
-0.000836025 0.00429165 -0.102967
-0.000787191 0.00418917 -0.10312
-0.000701686 0.00405412 -0.103293
-0.000544031 0.00389021 -0.103464
-0.000266188 0.00371808 -0.103539
0.000171546 0.00359561 -0.103058
0.000713155 0.00367043 -0.100057
0.00101363 0.00428606 -0.0879075
0.000506814 0.00506039 -0.0492976
-0.00042631 0.00976931 -0.0532238
-0.000650013 0.0111488 -0.0941627
-0.000655628 0.0112771 -0.106812
-0.000580709 0.011485 -0.109865
-0.000504547 0.0116339 -0.110369
-0.000449042 0.01171 -0.110385
-0.000413838 0.0117405 -0.110365
-0.000394991 0.0117453 -0.110373
-0.000390056 0.011733 -0.110412
-0.000398513 0.0117045 -0.110478
-0.000420235 0.0116551 -0.110577
-0.000453853 0.0115763 -0.110714
-0.0004938 0.0114561 -0.110897
-0.000525939 0.0112804 -0.111132
-0.000520958 0.0110362 -0.11141
-0.000428279 0.0107211 -0.111642
-0.000185836 0.0103684 -0.111324
0.000206915 0.0101153 -0.108294
0.000506821 0.0102709 -0.0953247
0.00025341 0.00954645 -0.0536176
0.000138392 0.0141161 -0.0515986
0.00032943 0.0178439 -0.0889198
0.000492596 0.0187615 -0.0998267
0.00059304 0.0192754 -0.102242
0.000634057 0.0195379 -0.10253
0.000633543 0.0196549 -0.102467
0.000606729 0.0197018 -0.102412
0.000561671 0.0197161 -0.102401
0.000501025 0.0197121 -0.102425
0.000423771 0.0196921 -0.102483
0.000326757 0.0196515 -0.102579
0.000205835 0.0195803 -0.102726
5.72059e-05 0.0194624 -0.102941
-0.000119006 0.0192752 -0.103246
-0.000312542 0.0189884 -0.103653
-0.00049206 0.0185673 -0.104105
-0.000597467 0.0179923 -0.104159
-0.000565032 0.0173244 -0.101841
-0.000409643 0.0167187 -0.0904825
-0.000204821 0.0139169 -0.0520728
0.00107647 0.0167155 -0.03004
0.001832 0.0229571 -0.0444399
0.00215072 0.0247661 -0.0472058
0.00221846 0.0255623 -0.0472839
0.00216764 0.0259075 -0.0469833
0.00206381 0.0260487 -0.0467758
0.00193464 0.0261055 -0.0466775
0.00179029 0.0261276 -0.0466458
0.00163271 0.0261324 -0.0466561
0.00146007 0.0261235 -0.0467029
0.00126756 0.0260973 -0.046792
0.00104708 0.0260448 -0.0469381
0.000786808 0.0259503 -0.0471656
0.000470419 0.0257888 -0.0475098
7.82458e-05 0.025521 -0.048016
-0.000407257 0.0250868 -0.0487131
-0.000984353 0.0244037 -0.049482
-0.00157847 0.0233895 -0.0495817
-0.00185209 0.0218459 -0.0462936
-0.000926045 0.0165727 -0.0305798
0.002267 0.0150405 0.0598132
0.00349275 0.0222664 0.108519
0.00377316 0.0243517 0.122346
0.00365215 0.0251476 0.126136
0.0034077 0.0254648 0.127255
0.0031378 0.0255901 0.12762
0.00286877 0.0256416 0.127751
0.00260451 0.0256642 0.127794
0.0023429 0.0256733 0.127794
0.00207998 0.0256724 0.127761
0.00180988 0.0256599 0.12769
0.00152328 0.0256296 0.127568
0.00120425 0.0255708 0.127373
0.000825497 0.0254649 0.127065
0.000340049 0.0252796 0.126575
-0.000331475 0.0249593 0.125752
-0.00130321 0.0244083 0.124167
-0.00261775 0.0234587 0.120162
-0.0036327 0.0215558 0.106754
-0.00181635 0.0149317 0.0592047
0.00243854 0.00752024 0.389003
0.00331712 0.0111332 0.528209
0.00317103 0.0121759 0.552163
0.0027405 0.0125738 0.556637
0.00231899 0.0127324 0.557636
0.00197017 0.0127951 0.557909
0.00168718 0.0128208 0.557995
0.00145131 0.0128321 0.558022
0.00124685 0.0128366 0.558021
0.00106215 0.0128362 0.557998
0.000887882 0.0128299 0.557954
0.000714583 0.0128148 0.557881
0.000528922 0.0127854 0.557769
0.000307934 0.0127324 0.557593
7.83042e-06 0.0126398 0.557304
-0.00045875 0.0124796 0.556769
-0.00125018 0.0122042 0.555489
-0.00252324 0.0117294 0.550876
-0.00376106 0.0107779 0.527131
-0.00188053 0.00746586 0.38837
1.92903e-06 -0.000141763 0.00288488
2.77771e-07 -0.000174979 0.00384399
-8.5043e-06 -0.000186082 0.00384649
-1.83455e-05 -0.00019199 0.00383827
-2.90585e-05 -0.000194258 0.00385233
-4.13808e-05 -0.000194961 0.00385907
-5.52874e-05 -0.000195252 0.00384963
-7.01037e-05 -0.000195582 0.0038246
-8.47786e-05 -0.000196054 0.00378583
-9.80214e-05 -0.000196609 0.00373473
-0.000108405 -0.000197117 0.00367252
-0.000114517 -0.000197374 0.00360097
-0.00011501 -0.000197054 0.0035227
-0.000109108 -0.000195777 0.0034415
-9.72429e-05 -0.000193039 0.00336263
-8.17005e-05 -0.000188269 0.00329457
-6.80925e-05 -0.000181017 0.00325734
-6.52695e-05 -0.000171115 0.00329432
-7.7896e-05 -0.000159196 0.00338707
-3.8948e-05 -0.000124623 0.00262137
-1.61675e-06 -0.000425768 0.00370467
-1.67183e-05 -0.000549733 0.00439701
-3.57449e-05 -0.000584033 0.00406568
-5.21681e-05 -0.000600274 0.00394033
-6.78296e-05 -0.000606737 0.00393706
-8.47585e-05 -0.00060888 0.00394616
-0.000103458 -0.000609681 0.00393483
-0.00012333 -0.000610365 0.00389981
-0.000143115 -0.00061126 0.00384321
-0.000161142 -0.000612245 0.00376708
-0.000175446 -0.000613004 0.00367325
-0.00018389 -0.000612977 0.00356429
-0.000184356 -0.000611381 0.00344418
-0.000175185 -0.000607184 0.00331858
-0.000156095 -0.00059922 0.0031957
-0.000129229 -0.000586202 0.00309195
-0.000101051 -0.000567152 0.00305657
-8.42824e-05 -0.000542034 0.00322284
-8.97495e-05 -0.00051014 0.0037073
-4.48747e-05 -0.000400794 0.00333515
-2.20307e-05 -0.000844828 0.00330906
-5.54905e-05 -0.00111146 0.00322963
-8.42144e-05 -0.00117907 0.00255401
-0.000104258 -0.00120903 0.00233167
-0.000120631 -0.00122122 0.00231372
-0.000137205 -0.00122552 0.002325
-0.000155279 -0.00122715 0.00231569
-0.000174479 -0.00122831 0.0022796
-0.000193464 -0.00122958 0.00221863
-0.000210357 -0.00123084 0.00213489
-0.00022282 -0.00123151 0.00203032
-0.000228253 -0.00123066 0.00190774
-0.000223917 -0.00122687 0.00177159
-0.000207538 -0.0012184 0.00162841
-0.00017819 -0.00120331 0.0014879
-0.000137696 -0.00117961 0.00137085
-9.30927e-05 -0.00114593 0.00134541
-6.01223e-05 -0.0011024 0.00161369
-5.85527e-05 -0.00104376 0.00246569
-2.92763e-05 -0.00081358 0.00291438
-5.00406e-05 -0.00139614 0.00259701
-0.000106791 -0.00186353 0.00161134
-0.000147068 -0.00197674 0.000612486
-0.000170745 -0.00202446 0.000311688
-0.000186918 -0.00204421 0.000284193
-0.000201799 -0.00205161 0.000298811
-0.000217736 -0.00205454 0.000292518
-0.000234609 -0.00205639 0.000256984
-0.000251065 -0.00205812 0.000193899
-0.000264961 -0.00205961 0.000105286
-0.000273558 -0.00205998 -6.87323e-06
-0.00027362 -0.00205777 -0.000139692
-0.000261774 -0.00205099 -0.000288257
-0.000235035 -0.002037 -0.000445106
-0.000191936 -0.00201293 -0.000599018
-0.000134151 -0.00197604 -0.000725673
-6.98665e-05 -0.00192467 -0.000742731
-1.88591e-05 -0.00185879 -0.000390713
-1.1751e-05 -0.00176366 0.000800582
-5.8755e-06 -0.00135812 0.00218665
-8.52097e-05 -0.00208462 0.00152121
-0.000170955 -0.0028192 -0.000596166
-0.000225281 -0.0029934 -0.00196467
-0.000253038 -0.00306406 -0.00235162
-0.000268462 -0.00309369 -0.00238997
-0.000280664 -0.00310529 -0.0023722
-0.000293283 -0.00311017 -0.00237522
-0.000306621 -0.00311303 -0.00240975
-0.000319298 -0.0031154 -0.00247443
-0.000328838 -0.00311714 -0.00256734
-0.00033199 -0.00311707 -0.0026865
-0.000324892 -0.00311318 -0.00282895
-0.000303257 -0.00310268 -0.00298937
-0.000263318 -0.00308196 -0.00315915
-0.000202972 -0.00304701 -0.0033253
-0.000123971 -0.00299415 -0.00345964
-3.60206e-05 -0.0029212 -0.00346532
3.59954e-05 -0.00282744 -0.00302118
4.83491e-05 -0.00268243 -0.00144644
2.41745e-05 -0.00203891 0.00109745
-0.000129598 -0.00290814 -7.07791e-05
-0.000251626 -0.00398246 -0.00366482
-0.000323266 -0.00423597 -0.00549715
-0.000355689 -0.00433557 -0.00599351
-0.000369618 -0.00437766 -0.00604824
-0.000377916 -0.00439483 -0.00602867
-0.000385757 -0.00440233 -0.00602869
-0.000394064 -0.00440671 -0.00606207
-0.000401429 -0.00441001 -0.00612791
-0.000405024 -0.00441214 -0.0062245
-0.000401008 -0.00441163 -0.00634999
-0.000384687 -0.00440588 -0.0065012
-0.000350763 -0.00439112 -0.00667233
-0.000294397 -0.00436259 -0.00685372
-0.000212736 -0.00431488 -0.0070303
-0.000107561 -0.00424301 -0.00716941
9.42737e-06 -0.0041441 -0.0071568
0.00010712 -0.00401548 -0.00659722
0.000125124 -0.0038041 -0.00454704
6.25619e-05 -0.00285409 -0.000504789
-0.00018512 -0.00384602 -0.00233906
-0.000352193 -0.005334 -0.00785061
-0.000444935 -0.00568704 -0.01027
-0.000482644 -0.00582209 -0.0109076
-0.000494234 -0.00587926 -0.0109868
-0.000497073 -0.00590325 -0.0109677
-0.000498465 -0.00591416 -0.0109655
-0.000499972 -0.00592055 -0.0109979
-0.000500239 -0.00592519 -0.0110644
-0.000496098 -0.00592804 -0.0111636
-0.000483021 -0.00592737 -0.0112941
-0.000455272 -0.0059199 -0.0114522
-0.000406326 -0.0059008 -0.0116317
-0.000329965 -0.00586384 -0.0118219
-0.000222281 -0.00580195 -0.0120055
-8.51146e-05 -0.00570844 -0.0121444
6.76804e-05 -0.00557901 -0.0121037
0.000196992 -0.00540778 -0.0113972
0.000221648 -0.00511088 -0.00875218
0.000110824 -0.00378381 -0.00277787
-0.000253071 -0.00484846 -0.00544514
-0.00047471 -0.00681729 -0.013402
-0.000592556 -0.00729053 -0.0165553
-0.000636077 -0.00746718 -0.0173731
-0.000644239 -0.00754161 -0.0174871
-0.000639958 -0.00757336 -0.0174721
-0.000633015 -0.00758828 -0.017469
-0.000625858 -0.00759717 -0.0175007
-0.000617192 -0.00760367 -0.0175673
-0.000603553 -0.00760784 -0.0176679
-0.000579587 -0.00760767 -0.017801
-0.000538362 -0.00759922 -0.0179633
-0.000471792 -0.00757654 -0.0181476
-0.000371962 -0.0075317 -0.018342
-0.000233481 -0.00745546 -0.018527
-5.7863e-05 -0.0073388 -0.0186587
0.000138436 -0.00717509 -0.0185769
0.000306598 -0.00695326 -0.0176851
0.000339742 -0.00654987 -0.0143042
0.000169871 -0.00478005 -0.00588087
-0.00033347 -0.00582488 -0.00953793
-0.000619032 -0.00832287 -0.0205447
-0.000765594 -0.00893469 -0.0246007
-0.000815098 -0.00915743 -0.025644
-0.000818466 -0.00925001 -0.0258057
-0.000805278 -0.00928976 -0.0257991
-0.000788157 -0.0093089 -0.0257969
-0.000770605 -0.00932066 -0.0258284
-0.00075145 -0.00932955 -0.0258948