# vtk DataFile Version 2.0 
Visualization 
ASCII 
DATASET STRUCTURED_GRID 
DIMENSIONS 21 21 11
POINTS 4851 float
-0.1 -0.1 -0.1
0 -0.1 -0.1
0.1 -0.1 -0.1
0.2 -0.1 -0.1
0.3 -0.1 -0.1
0.4 -0.1 -0.1
0.5 -0.1 -0.1
0.6 -0.1 -0.1
0.7 -0.1 -0.1
0.8 -0.1 -0.1
0.9 -0.1 -0.1
1 -0.1 -0.1
1.1 -0.1 -0.1
1.2 -0.1 -0.1
1.3 -0.1 -0.1
1.4 -0.1 -0.1
1.5 -0.1 -0.1
1.6 -0.1 -0.1
1.7 -0.1 -0.1
1.8 -0.1 -0.1
1.9 -0.1 -0.1
-0.1 0 -0.1
0 0 -0.1
0.1 0 -0.1
0.2 0 -0.1
0.3 0 -0.1
0.4 0 -0.1
0.5 0 -0.1
0.6 0 -0.1
0.7 0 -0.1
0.8 0 -0.1
0.9 0 -0.1
1 0 -0.1
1.1 0 -0.1
1.2 0 -0.1
1.3 0 -0.1
1.4 0 -0.1
1.5 0 -0.1
1.6 0 -0.1
1.7 0 -0.1
1.8 0 -0.1
1.9 0 -0.1
-0.1 0.1 -0.1
0 0.1 -0.1
0.1 0.1 -0.1
0.2 0.1 -0.1
0.3 0.1 -0.1
0.4 0.1 -0.1
0.5 0.1 -0.1
0.6 0.1 -0.1
0.7 0.1 -0.1
0.8 0.1 -0.1
0.9 0.1 -0.1
1 0.1 -0.1
1.1 0.1 -0.1
1.2 0.1 -0.1
1.3 0.1 -0.1
1.4 0.1 -0.1
1.5 0.1 -0.1
1.6 0.1 -0.1
1.7 0.1 -0.1
1.8 0.1 -0.1
1.9 0.1 -0.1
-0.1 0.2 -0.1
0 0.2 -0.1
0.1 0.2 -0.1
0.2 0.2 -0.1
0.3 0.2 -0.1
0.4 0.2 -0.1
0.5 0.2 -0.1
0.6 0.2 -0.1
0.7 0.2 -0.1
0.8 0.2 -0.1
0.9 0.2 -0.1
1 0.2 -0.1
1.1 0.2 -0.1
1.2 0.2 -0.1
1.3 0.2 -0.1
1.4 0.2 -0.1
1.5 0.2 -0.1
1.6 0.2 -0.1
1.7 0.2 -0.1
1.8 0.2 -0.1
1.9 0.2 -0.1
-0.1 0.3 -0.1
0 0.3 -0.1
0.1 0.3 -0.1
0.2 0.3 -0.1
0.3 0.3 -0.1
0.4 0.3 -0.1
0.5 0.3 -0.1
0.6 0.3 -0.1
0.7 0.3 -0.1
0.8 0.3 -0.1
0.9 0.3 -0.1
1 0.3 -0.1
1.1 0.3 -0.1
1.2 0.3 -0.1
1.3 0.3 -0.1
1.4 0.3 -0.1
1.5 0.3 -0.1
1.6 0.3 -0.1
1.7 0.3 -0.1
1.8 0.3 -0.1
1.9 0.3 -0.1
-0.1 0.4 -0.1
0 0.4 -0.1
0.1 0.4 -0.1
0.2 0.4 -0.1
0.3 0.4 -0.1
0.4 0.4 -0.1
0.5 0.4 -0.1
0.6 0.4 -0.1
0.7 0.4 -0.1
0.8 0.4 -0.1
0.9 0.4 -0.1
1 0.4 -0.1
1.1 0.4 -0.1
1.2 0.4 -0.1
1.3 0.4 -0.1
1.4 0.4 -0.1
1.5 0.4 -0.1
1.6 0.4 -0.1
1.7 0.4 -0.1
1.8 0.4 -0.1
1.9 0.4 -0.1
-0.1 0.5 -0.1
0 0.5 -0.1
0.1 0.5 -0.1
0.2 0.5 -0.1
0.3 0.5 -0.1
0.4 0.5 -0.1
0.5 0.5 -0.1
0.6 0.5 -0.1
0.7 0.5 -0.1
0.8 0.5 -0.1
0.9 0.5 -0.1
1 0.5 -0.1
1.1 0.5 -0.1
1.2 0.5 -0.1
1.3 0.5 -0.1
1.4 0.5 -0.1
1.5 0.5 -0.1
1.6 0.5 -0.1
1.7 0.5 -0.1
1.8 0.5 -0.1
1.9 0.5 -0.1
-0.1 0.6 -0.1
0 0.6 -0.1
0.1 0.6 -0.1
0.2 0.6 -0.1
0.3 0.6 -0.1
0.4 0.6 -0.1
0.5 0.6 -0.1
0.6 0.6 -0.1
0.7 0.6 -0.1
0.8 0.6 -0.1
0.9 0.6 -0.1
1 0.6 -0.1
1.1 0.6 -0.1
1.2 0.6 -0.1
1.3 0.6 -0.1
1.4 0.6 -0.1
1.5 0.6 -0.1
1.6 0.6 -0.1
1.7 0.6 -0.1
1.8 0.6 -0.1
1.9 0.6 -0.1
-0.1 0.7 -0.1
0 0.7 -0.1
0.1 0.7 -0.1
0.2 0.7 -0.1
0.3 0.7 -0.1
0.4 0.7 -0.1
0.5 0.7 -0.1
0.6 0.7 -0.1
0.7 0.7 -0.1
0.8 0.7 -0.1
0.9 0.7 -0.1
1 0.7 -0.1
1.1 0.7 -0.1
1.2 0.7 -0.1
1.3 0.7 -0.1
1.4 0.7 -0.1
1.5 0.7 -0.1
1.6 0.7 -0.1
1.7 0.7 -0.1
1.8 0.7 -0.1
1.9 0.7 -0.1
-0.1 0.8 -0.1
0 0.8 -0.1
0.1 0.8 -0.1
0.2 0.8 -0.1
0.3 0.8 -0.1
0.4 0.8 -0.1
0.5 0.8 -0.1
0.6 0.8 -0.1
0.7 0.8 -0.1
0.8 0.8 -0.1
0.9 0.8 -0.1
1 0.8 -0.1
1.1 0.8 -0.1
1.2 0.8 -0.1
1.3 0.8 -0.1
1.4 0.8 -0.1
1.5 0.8 -0.1
1.6 0.8 -0.1
1.7 0.8 -0.1
1.8 0.8 -0.1
1.9 0.8 -0.1
-0.1 0.9 -0.1
0 0.9 -0.1
0.1 0.9 -0.1
0.2 0.9 -0.1
0.3 0.9 -0.1
0.4 0.9 -0.1
0.5 0.9 -0.1
0.6 0.9 -0.1
0.7 0.9 -0.1
0.8 0.9 -0.1
0.9 0.9 -0.1
1 0.9 -0.1
1.1 0.9 -0.1
1.2 0.9 -0.1
1.3 0.9 -0.1
1.4 0.9 -0.1
1.5 0.9 -0.1
1.6 0.9 -0.1
1.7 0.9 -0.1
1.8 0.9 -0.1
1.9 0.9 -0.1
-0.1 1 -0.1
0 1 -0.1
0.1 1 -0.1
0.2 1 -0.1
0.3 1 -0.1
0.4 1 -0.1
0.5 1 -0.1
0.6 1 -0.1
0.7 1 -0.1
0.8 1 -0.1
0.9 1 -0.1
1 1 -0.1
1.1 1 -0.1
1.2 1 -0.1
1.3 1 -0.1
1.4 1 -0.1
1.5 1 -0.1
1.6 1 -0.1
1.7 1 -0.1
1.8 1 -0.1
1.9 1 -0.1
-0.1 1.1 -0.1
0 1.1 -0.1
0.1 1.1 -0.1
0.2 1.1 -0.1
0.3 1.1 -0.1
0.4 1.1 -0.1
0.5 1.1 -0.1
0.6 1.1 -0.1
0.7 1.1 -0.1
0.8 1.1 -0.1
0.9 1.1 -0.1
1 1.1 -0.1
1.1 1.1 -0.1
1.2 1.1 -0.1
1.3 1.1 -0.1
1.4 1.1 -0.1
1.5 1.1 -0.1
1.6 1.1 -0.1
1.7 1.1 -0.1
1.8 1.1 -0.1
1.9 1.1 -0.1
-0.1 1.2 -0.1
0 1.2 -0.1
0.1 1.2 -0.1
0.2 1.2 -0.1
0.3 1.2 -0.1
0.4 1.2 -0.1
0.5 1.2 -0.1
0.6 1.2 -0.1
0.7 1.2 -0.1
0.8 1.2 -0.1
0.9 1.2 -0.1
1 1.2 -0.1
1.1 1.2 -0.1
1.2 1.2 -0.1
1.3 1.2 -0.1
1.4 1.2 -0.1
1.5 1.2 -0.1
1.6 1.2 -0.1
1.7 1.2 -0.1
1.8 1.2 -0.1
1.9 1.2 -0.1
-0.1 1.3 -0.1
0 1.3 -0.1
0.1 1.3 -0.1
0.2 1.3 -0.1
0.3 1.3 -0.1
0.4 1.3 -0.1
0.5 1.3 -0.1
0.6 1.3 -0.1
0.7 1.3 -0.1
0.8 1.3 -0.1
0.9 1.3 -0.1
1 1.3 -0.1
1.1 1.3 -0.1
1.2 1.3 -0.1
1.3 1.3 -0.1
1.4 1.3 -0.1
1.5 1.3 -0.1
1.6 1.3 -0.1
1.7 1.3 -0.1
1.8 1.3 -0.1
1.9 1.3 -0.1
-0.1 1.4 -0.1
0 1.4 -0.1
0.1 1.4 -0.1
0.2 1.4 -0.1
0.3 1.4 -0.1
0.4 1.4 -0.1
0.5 1.4 -0.1
0.6 1.4 -0.1
0.7 1.4 -0.1
0.8 1.4 -0.1
0.9 1.4 -0.1
1 1.4 -0.1
1.1 1.4 -0.1
1.2 1.4 -0.1
1.3 1.4 -0.1
1.4 1.4 -0.1
1.5 1.4 -0.1
1.6 1.4 -0.1
1.7 1.4 -0.1
1.8 1.4 -0.1
1.9 1.4 -0.1
-0.1 1.5 -0.1
0 1.5 -0.1
0.1 1.5 -0.1
0.2 1.5 -0.1
0.3 1.5 -0.1
0.4 1.5 -0.1
0.5 1.5 -0.1
0.6 1.5 -0.1
0.7 1.5 -0.1
0.8 1.5 -0.1
0.9 1.5 -0.1
1 1.5 -0.1
1.1 1.5 -0.1
1.2 1.5 -0.1
1.3 1.5 -0.1
1.4 1.5 -0.1
1.5 1.5 -0.1
1.6 1.5 -0.1
1.7 1.5 -0.1
1.8 1.5 -0.1
1.9 1.5 -0.1
-0.1 1.6 -0.1
0 1.6 -0.1
0.1 1.6 -0.1
0.2 1.6 -0.1
0.3 1.6 -0.1
0.4 1.6 -0.1
0.5 1.6 -0.1
0.6 1.6 -0.1
0.7 1.6 -0.1
0.8 1.6 -0.1
0.9 1.6 -0.1
1 1.6 -0.1
1.1 1.6 -0.1
1.2 1.6 -0.1
1.3 1.6 -0.1
1.4 1.6 -0.1
1.5 1.6 -0.1
1.6 1.6 -0.1
1.7 1.6 -0.1
1.8 1.6 -0.1
1.9 1.6 -0.1
-0.1 1.7 -0.1
0 1.7 -0.1
0.1 1.7 -0.1
0.2 1.7 -0.1
0.3 1.7 -0.1
0.4 1.7 -0.1
0.5 1.7 -0.1
0.6 1.7 -0.1
0.7 1.7 -0.1
0.8 1.7 -0.1
0.9 1.7 -0.1
1 1.7 -0.1
1.1 1.7 -0.1
1.2 1.7 -0.1
1.3 1.7 -0.1
1.4 1.7 -0.1
1.5 1.7 -0.1
1.6 1.7 -0.1
1.7 1.7 -0.1
1.8 1.7 -0.1
1.9 1.7 -0.1
-0.1 1.8 -0.1
0 1.8 -0.1
0.1 1.8 -0.1
0.2 1.8 -0.1
0.3 1.8 -0.1
0.4 1.8 -0.1
0.5 1.8 -0.1
0.6 1.8 -0.1
0.7 1.8 -0.1
0.8 1.8 -0.1
0.9 1.8 -0.1
1 1.8 -0.1
1.1 1.8 -0.1
1.2 1.8 -0.1
1.3 1.8 -0.1
1.4 1.8 -0.1
1.5 1.8 -0.1
1.6 1.8 -0.1
1.7 1.8 -0.1
1.8 1.8 -0.1
1.9 1.8 -0.1
-0.1 1.9 -0.1
0 1.9 -0.1
0.1 1.9 -0.1
0.2 1.9 -0.1
0.3 1.9 -0.1
0.4 1.9 -0.1
0.5 1.9 -0.1
0.6 1.9 -0.1
0.7 1.9 -0.1
0.8 1.9 -0.1
0.9 1.9 -0.1
1 1.9 -0.1
1.1 1.9 -0.1
1.2 1.9 -0.1
1.3 1.9 -0.1
1.4 1.9 -0.1
1.5 1.9 -0.1
1.6 1.9 -0.1
1.7 1.9 -0.1
1.8 1.9 -0.1
1.9 1.9 -0.1
-0.1 -0.1 0
0 -0.1 0
0.1 -0.1 0
0.2 -0.1 0
0.3 -0.1 0
0.4 -0.1 0
0.5 -0.1 0
0.6 -0.1 0
0.7 -0.1 0
0.8 -0.1 0
0.9 -0.1 0
1 -0.1 0
1.1 -0.1 0
1.2 -0.1 0
1.3 -0.1 0
1.4 -0.1 0
1.5 -0.1 0
1.6 -0.1 0
1.7 -0.1 0
1.8 -0.1 0
1.9 -0.1 0
-0.1 0 0
0 0 0
0.1 0 0
0.2 0 0
0.3 0 0
0.4 0 0
0.5 0 0
0.6 0 0
0.7 0 0
0.8 0 0
0.9 0 0
1 0 0
1.1 0 0
1.2 0 0
1.3 0 0
1.4 0 0
1.5 0 0
1.6 0 0
1.7 0 0
1.8 0 0
1.9 0 0
-0.1 0.1 0
0 0.1 0
0.1 0.1 0
0.2 0.1 0
0.3 0.1 0
0.4 0.1 0
0.5 0.1 0
0.6 0.1 0
0.7 0.1 0
0.8 0.1 0
0.9 0.1 0
1 0.1 0
1.1 0.1 0
1.2 0.1 0
1.3 0.1 0
1.4 0.1 0
1.5 0.1 0
1.6 0.1 0
1.7 0.1 0
1.8 0.1 0
1.9 0.1 0
-0.1 0.2 0
0 0.2 0
0.1 0.2 0
0.2 0.2 0
0.3 0.2 0
0.4 0.2 0
0.5 0.2 0
0.6 0.2 0
0.7 0.2 0
0.8 0.2 0
0.9 0.2 0
1 0.2 0
1.1 0.2 0
1.2 0.2 0
1.3 0.2 0
1.4 0.2 0
1.5 0.2 0
1.6 0.2 0
1.7 0.2 0
1.8 0.2 0
1.9 0.2 0
-0.1 0.3 0
0 0.3 0
0.1 0.3 0
0.2 0.3 0
0.3 0.3 0
0.4 0.3 0
0.5 0.3 0
0.6 0.3 0
0.7 0.3 0
0.8 0.3 0
0.9 0.3 0
1 0.3 0
1.1 0.3 0
1.2 0.3 0
1.3 0.3 0
1.4 0.3 0
1.5 0.3 0
1.6 0.3 0
1.7 0.3 0
1.8 0.3 0
1.9 0.3 0
-0.1 0.4 0
0 0.4 0
0.1 0.4 0
0.2 0.4 0
0.3 0.4 0
0.4 0.4 0
0.5 0.4 0
0.6 0.4 0
0.7 0.4 0
0.8 0.4 0
0.9 0.4 0
1 0.4 0
1.1 0.4 0
1.2 0.4 0
1.3 0.4 0
1.4 0.4 0
1.5 0.4 0
1.6 0.4 0
1.7 0.4 0
1.8 0.4 0
1.9 0.4 0
-0.1 0.5 0
0 0.5 0
0.1 0.5 0
0.2 0.5 0
0.3 0.5 0
0.4 0.5 0
0.5 0.5 0
0.6 0.5 0
0.7 0.5 0
0.8 0.5 0
0.9 0.5 0
1 0.5 0
1.1 0.5 0
1.2 0.5 0
1.3 0.5 0
1.4 0.5 0
1.5 0.5 0
1.6 0.5 0
1.7 0.5 0
1.8 0.5 0
1.9 0.5 0
-0.1 0.6 0
0 0.6 0
0.1 0.6 0
0.2 0.6 0
0.3 0.6 0
0.4 0.6 0
0.5 0.6 0
0.6 0.6 0
0.7 0.6 0
0.8 0.6 0
0.9 0.6 0
1 0.6 0
1.1 0.6 0
1.2 0.6 0
1.3 0.6 0
1.4 0.6 0
1.5 0.6 0
1.6 0.6 0
1.7 0.6 0
1.8 0.6 0
1.9 0.6 0
-0.1 0.7 0
0 0.7 0
0.1 0.7 0
0.2 0.7 0
0.3 0.7 0
0.4 0.7 0
0.5 0.7 0
0.6 0.7 0
0.7 0.7 0
0.8 0.7 0
0.9 0.7 0
1 0.7 0
1.1 0.7 0
1.2 0.7 0
1.3 0.7 0
1.4 0.7 0
1.5 0.7 0
1.6 0.7 0
1.7 0.7 0
1.8 0.7 0
1.9 0.7 0
-0.1 0.8 0
0 0.8 0
0.1 0.8 0
0.2 0.8 0
0.3 0.8 0
0.4 0.8 0
0.5 0.8 0
0.6 0.8 0
0.7 0.8 0
0.8 0.8 0
0.9 0.8 0
1 0.8 0
1.1 0.8 0
1.2 0.8 0
1.3 0.8 0
1.4 0.8 0
1.5 0.8 0
1.6 0.8 0
1.7 0.8 0
1.8 0.8 0
1.9 0.8 0
-0.1 0.9 0
0 0.9 0
0.1 0.9 0
0.2 0.9 0
0.3 0.9 0
0.4 0.9 0
0.5 0.9 0
0.6 0.9 0
0.7 0.9 0
0.8 0.9 0
0.9 0.9 0
1 0.9 0
1.1 0.9 0
1.2 0.9 0
1.3 0.9 0
1.4 0.9 0
1.5 0.9 0
1.6 0.9 0
1.7 0.9 0
1.8 0.9 0
1.9 0.9 0
-0.1 1 0
0 1 0
0.1 1 0
0.2 1 0
0.3 1 0
0.4 1 0
0.5 1 0
0.6 1 0
0.7 1 0
0.8 1 0
0.9 1 0
1 1 0
1.1 1 0
1.2 1 0
1.3 1 0
1.4 1 0
1.5 1 0
1.6 1 0
1.7 1 0
1.8 1 0
1.9 1 0
-0.1 1.1 0
0 1.1 0
0.1 1.1 0
0.2 1.1 0
0.3 1.1 0
0.4 1.1 0
0.5 1.1 0
0.6 1.1 0
0.7 1.1 0
0.8 1.1 0
0.9 1.1 0
1 1.1 0
1.1 1.1 0
1.2 1.1 0
1.3 1.1 0
1.4 1.1 0
1.5 1.1 0
1.6 1.1 0
1.7 1.1 0
1.8 1.1 0
1.9 1.1 0
-0.1 1.2 0
0 1.2 0
0.1 1.2 0
0.2 1.2 0
0.3 1.2 0
0.4 1.2 0
0.5 1.2 0
0.6 1.2 0
0.7 1.2 0
0.8 1.2 0
0.9 1.2 0
1 1.2 0
1.1 1.2 0
1.2 1.2 0
1.3 1.2 0
1.4 1.2 0
1.5 1.2 0
1.6 1.2 0
1.7 1.2 0
1.8 1.2 0
1.9 1.2 0
-0.1 1.3 0
0 1.3 0
0.1 1.3 0
0.2 1.3 0
0.3 1.3 0
0.4 1.3 0
0.5 1.3 0
0.6 1.3 0
0.7 1.3 0
0.8 1.3 0
0.9 1.3 0
1 1.3 0
1.1 1.3 0
1.2 1.3 0
1.3 1.3 0
1.4 1.3 0
1.5 1.3 0
1.6 1.3 0
1.7 1.3 0
1.8 1.3 0
1.9 1.3 0
-0.1 1.4 0
0 1.4 0
0.1 1.4 0
0.2 1.4 0
0.3 1.4 0
0.4 1.4 0
0.5 1.4 0
0.6 1.4 0
0.7 1.4 0
0.8 1.4 0
0.9 1.4 0
1 1.4 0
1.1 1.4 0
1.2 1.4 0
1.3 1.4 0
1.4 1.4 0
1.5 1.4 0
1.6 1.4 0
1.7 1.4 0
1.8 1.4 0
1.9 1.4 0
-0.1 1.5 0
0 1.5 0
0.1 1.5 0
0.2 1.5 0
0.3 1.5 0
0.4 1.5 0
0.5 1.5 0
0.6 1.5 0
0.7 1.5 0
0.8 1.5 0
0.9 1.5 0
1 1.5 0
1.1 1.5 0
1.2 1.5 0
1.3 1.5 0
1.4 1.5 0
1.5 1.5 0
1.6 1.5 0
1.7 1.5 0
1.8 1.5 0
1.9 1.5 0
-0.1 1.6 0
0 1.6 0
0.1 1.6 0
0.2 1.6 0
0.3 1.6 0
0.4 1.6 0
0.5 1.6 0
0.6 1.6 0
0.7 1.6 0
0.8 1.6 0
0.9 1.6 0
1 1.6 0
1.1 1.6 0
1.2 1.6 0
1.3 1.6 0
1.4 1.6 0
1.5 1.6 0
1.6 1.6 0
1.7 1.6 0
1.8 1.6 0
1.9 1.6 0
-0.1 1.7 0
0 1.7 0
0.1 1.7 0
0.2 1.7 0
0.3 1.7 0
0.4 1.7 0
0.5 1.7 0
0.6 1.7 0
0.7 1.7 0
0.8 1.7 0
0.9 1.7 0
1 1.7 0
1.1 1.7 0
1.2 1.7 0
1.3 1.7 0
1.4 1.7 0
1.5 1.7 0
1.6 1.7 0
1.7 1.7 0
1.8 1.7 0
1.9 1.7 0
-0.1 1.8 0
0 1.8 0
0.1 1.8 0
0.2 1.8 0
0.3 1.8 0
0.4 1.8 0
0.5 1.8 0
0.6 1.8 0
0.7 1.8 0
0.8 1.8 0
0.9 1.8 0
1 1.8 0
1.1 1.8 0
1.2 1.8 0
1.3 1.8 0
1.4 1.8 0
1.5 1.8 0
1.6 1.8 0
1.7 1.8 0
1.8 1.8 0
1.9 1.8 0
-0.1 1.9 0
0 1.9 0
0.1 1.9 0
0.2 1.9 0
0.3 1.9 0
0.4 1.9 0
0.5 1.9 0
0.6 1.9 0
0.7 1.9 0
0.8 1.9 0
0.9 1.9 0
1 1.9 0
1.1 1.9 0
1.2 1.9 0
1.3 1.9 0
1.4 1.9 0
1.5 1.9 0
1.6 1.9 0
1.7 1.9 0
1.8 1.9 0
[...]
CELL_DATA 4000
VECTORS velocity double 
-2.57698e-05 0.000288831 -0.000263061
-2.81755e-05 0.000339986 -0.000299131
-2.56154e-05 0.000346856 -0.000308656
-1.75757e-05 0.000348585 -0.000314132
-4.46866e-06 0.000349332 -0.000317235
1.22685e-05 0.000349949 -0.000318915
3.09408e-05 0.000350629 -0.000319766
5.0007e-05 0.000351425 -0.000320025
6.80249e-05 0.000352357 -0.000319728
8.35616e-05 0.000353366 -0.000318868
9.52421e-05 0.000354347 -0.000317374
0.000101848 0.000355247 -0.000315085
0.000102263 0.000355917 -0.000311957
9.55448e-05 0.000356098 -0.000308113
8.13617e-05 0.000355509 -0.000303673
6.01014e-05 0.000353961 -0.000298801
3.29344e-05 0.000351185 -0.000293603
1.86163e-06 0.000346918 -0.000288302
-3.02204e-05 0.000339484 -0.000281606
-1.51102e-05 0.000297777 -0.000246705
-1.27354e-05 0.000826752 -0.000329497
-1.45226e-05 0.000974678 -0.000385267
-1.42938e-05 0.000994416 -0.000399425
-8.38902e-06 0.000999339 -0.000406893
3.78169e-06 0.0010011 -0.000410961
2.09978e-05 0.00100218 -0.000413089
4.15216e-05 0.0010033 -0.000414102
6.36221e-05 0.00100473 -0.000414294
8.55114e-05 0.00100654 -0.000413763
0.000105324 0.00100861 -0.000412506
0.000121288 0.00101078 -0.000410377
0.000131652 0.00101283 -0.000407213
0.000134641 0.00101428 -0.00040302
0.000128702 0.00101459 -0.00039798
0.000113042 0.00101316 -0.000392077
8.75844e-05 0.0010093 -0.000385491
5.3302e-05 0.00100229 -0.000378529
1.22521e-05 0.000991082 -0.000371575
-3.02688e-05 0.000969324 -0.000362522
-1.51344e-05 0.000833585 -0.00031388
2.77358e-06 0.00153137 -0.000396396
6.81546e-06 0.00182984 -0.000464322
7.49971e-06 0.00186965 -0.000481637
1.21058e-05 0.00187934 -0.000490818
2.2716e-05 0.00188254 -0.000495842
3.86388e-05 0.00188406 -0.00049848
5.8352e-05 0.00188546 -0.000499692
8.01349e-05 0.00188731 -0.00049987
0.000102072 0.00188972 -0.000499171
0.000122168 0.0018926 -0.000497569
0.000138442 0.00189567 -0.000494897
0.000148799 0.00189847 -0.00049103
0.000151116 0.00190035 -0.000485955
0.00014354 0.00190036 -0.000479724
0.000124807 0.00189746 -0.000472388
9.44913e-05 0.00189041 -0.000464269
5.31729e-05 0.0018781 -0.000455715
3.08811e-06 0.00185824 -0.000447126
-4.82529e-05 0.0018155 -0.000436748
-2.41264e-05 0.00153303 -0.000379631
2.05535e-05 0.00238504 -0.000480397
3.2843e-05 0.00289261 -0.000561339
3.50104e-05 0.00296114 -0.000581636
3.84868e-05 0.00297744 -0.000592619
4.73371e-05 0.00298269 -0.000598711
6.16475e-05 0.00298483 -0.000601941
8.01617e-05 0.00298644 -0.000603432
0.00010117 0.00298846 -0.000603664
0.000122667 0.00299116 -0.000602845
0.000142476 0.00299439 -0.000600954
0.000158336 0.00299782 -0.000597814
0.00016792 0.00300084 -0.000593252
0.00016864 0.00300251 -0.000587212
0.000158228 0.00300154 -0.000579626
0.000134942 0.00299637 -0.000570723
9.81071e-05 0.00298521 -0.00056089
4.77913e-05 0.00296638 -0.000550744
-1.32948e-05 0.00293633 -0.000540646
-7.36616e-05 0.0028652 -0.000528975
-3.68308e-05 0.00237945 -0.000461845
4.08501e-05 0.00338982 -0.000577219
6.35794e-05 0.00416985 -0.000672323
6.81275e-05 0.00427744 -0.000695398
7.05178e-05 0.00430258 -0.000708157
7.72441e-05 0.00431062 -0.000715382
8.94275e-05 0.00431361 -0.000719274
0.000106191 0.00431538 -0.000721107
0.000125883 0.00431737 -0.000721472
0.000146363 0.00431997 -0.000720636
0.00016532 0.00432306 -0.000718545
0.000180271 0.00432629 -0.00071502
0.000188496 0.00432893 -0.000709749
0.000186987 0.00432971 -0.000702682
0.000172921 0.00432697 -0.000693833
0.000143997 0.00431869 -0.000683459
9.92314e-05 0.00430272 -0.000671742
3.8626e-05 0.00427652 -0.000659669
-3.45274e-05 0.00423445 -0.000648119
-0.000103571 0.00412576 -0.000635433
-5.17856e-05 0.00337533 -0.0005568
6.39886e-05 0.00455238 -0.000682634
9.95386e-05 0.00567313 -0.000792443
0.000107455 0.00583178 -0.000817915
0.000108791 0.00586827 -0.000832346
0.000112927 0.00587986 -0.000840754
0.000122332 0.00588395 -0.000845369
0.000136627 0.00588592 -0.000847593
0.000154229 0.00588773 -0.000848166
0.000172934 0.00588992 -0.000847424
0.000190334 0.00589252 -0.000845239
0.000203708 0.00589513 -0.000841354
0.000209878 0.00589686 -0.000835492
0.000205364 0.0058962 -0.000827559
0.000186777 0.00589114 -0.000817377
0.000151407 0.0058792 -0.000805429
9.76018e-05 0.00585759 -0.000791977
2.53172e-05 0.00582295 -0.00077817
-6.10366e-05 0.00576671 -0.00076521
-0.000138384 0.0056097 -0.000751546
-6.9192e-05 0.00452786 -0.000660555
9.02554e-05 0.00587743 -0.00079258
0.000141178 0.00741165 -0.000916955
0.000153511 0.00763477 -0.000944283
0.000153768 0.00768526 -0.000960229
0.000154827 0.00770117 -0.000969761
0.000160785 0.00770667 -0.000975055
0.000171822 0.00770893 -0.000977698
0.00018647 0.00771047 -0.000978586
0.000202604 0.00771212 -0.000978024
0.000217688 0.00771405 -0.00097582
0.000228725 0.00771587 -0.000971706
0.000232106 0.00771638 -0.000965415
0.000223853 0.00771399 -0.000956865
0.000199985 0.00770636 -0.000945565
0.000157084 0.0076903 -0.000932039
9.29083e-05 0.00766243 -0.000916904
7.56432e-06 0.0076185 -0.000901342
-9.30141e-05 0.00754571 -0.000887181
-0.000178637 0.00732773 -0.000872967
-8.93185e-05 0.0058428 -0.000769273
0.000119698 0.00736467 -0.000903072
0.000188523 0.00938895 -0.00104124
0.000206261 0.00969101 -0.00106968
0.000205431 0.00975813 -0.00108679
0.000202974 0.00977899 -0.00109726
0.000204817 0.00978609 -0.00110316
0.000211801 0.00978865 -0.00110628
0.000222708 0.0097899 -0.00110756
0.000235528 0.00979107 -0.00110726
0.000247644 0.00979237 -0.0011052
0.000255592 0.00979336 -0.00110123
0.000255542 0.00979292 -0.00109476
0.000242978 0.00978901 -0.00108561
0.000213005 0.00977895 -0.0010736
0.000161575 0.009759 -0.00105882
8.58238e-05 0.00972481 -0.0010422
-1.40148e-05 0.00967111 -0.00102507
-0.000130189 0.00957912 -0.00100997
-0.000224258 0.00928592 -0.000995732
-0.000112129 0.00732179 -0.000878854
0.000152035 0.00900826 -0.00101058
0.000240957 0.0116019 -0.00116128
0.000264864 0.0119979 -0.00118985
0.000262895 0.012084 -0.00120757
0.000256465 0.01211 -0.00121871
0.000253557 0.0121186 -0.00122517
0.000255806 0.0121214 -0.00122877
0.000262416 0.0121225 -0.00123049
0.000271392 0.0121233 -0.00123064
0.000279995 0.0121243 -0.00122895
0.000284606 0.0121249 -0.00122529
0.000280808 0.0121241 -0.00121912
0.000263564 0.0121197 -0.00120977
0.000227116 0.0121083 -0.00119736
0.000166393 0.0120854 -0.0011819
7.80049e-05 0.0120459 -0.00116411
-3.79402e-05 0.0119826 -0.00114584
-0.000171265 0.0118691 -0.00113
-0.000273985 0.011485 -0.00111603
-0.000136993 0.00896081 -0.00098624
0.000186455 0.0107983 -0.00111312
0.000296846 0.0140419 -0.00127487
0.000327223 0.0145468 -0.00130238
0.000323842 0.0146533 -0.00131999
0.000312958 0.014684 -0.00133144
0.000304817 0.0146936 -0.00133827
0.000302015 0.0146965 -0.0013423
0.000304024 0.0146976 -0.00134447
0.00030901 0.0146984 -0.00134519
0.000314024 0.0146996 -0.0013443
0.00031547 0.0147008 -0.00134113
0.000308432 0.014701 -0.00133556
0.000286794 0.0146977 -0.00132694
0.000244101 0.014687 -0.0013147
0.000174129 0.0146639 -0.00129902
7.2376e-05 0.0146214 -0.00128066
-6.09814e-05 0.01455 -0.00126175
-0.000213299 0.0144131 -0.00124592
-0.000325946 0.0139214 -0.00123242
-0.000162973 0.0107526 -0.00108995
0.000221411 0.0127254 -0.00121203
0.000353177 0.0167002 -0.00138372
0.000389433 0.0173279 -0.00140883
0.000383984 0.0174548 -0.00142543
0.000368217 0.0174885 -0.00143664
0.000354665 0.0174982 -0.00144357
0.000346837 0.0175009 -0.0014478
0.000344388 0.0175019 -0.00145048
0.000345739 0.0175031 -0.0014518
0.000347885 0.0175054 -0.00145194
0.000347097 0.0175085 -0.00144987
0.000337918 0.0175115 -0.00144535
0.000313546 0.017512 -0.00143783
0.000266257 0.0175058 -0.00142658
0.000188243 0.0174867 -0.0014116
7.33662e-05 0.0174459 -0.0013937
-7.82265e-05 0.0173704 -0.00137483
-0.000251503 0.0172099 -0.00135953
-0.000376407 0.0165929 -0.00134728
-0.000188203 0.0126913 -0.00119135
0.000254437 0.0147904 -0.00131456
0.000404992 0.0195783 -0.00149659
0.000444931 0.0203399 -0.00151804
0.000436143 0.0204845 -0.00153262
0.000415088 0.0205181 -0.00154291
0.000396343 0.020526 -0.00154947
0.000384047 0.0205275 -0.00155366
0.000377946 0.0205283 -0.0015569
0.000376756 0.0205303 -0.00155879
0.000377576 0.0205343 -0.00155974
0.000376477 0.0205407 -0.00155907
0.000367702 0.0205489 -0.0015563
0.000343809 0.0205569 -0.00155053
0.00029556 0.0205604 -0.00154114
0.000212768 0.0205522 -0.00152803
8.74152e-05 0.0205212 -0.00151162
-8.22051e-05 0.0204493 -0.00149395
-0.000278611 0.0202679 -0.00147979
-0.000419506 0.0195082 -0.00146901
-0.000209753 0.0147801 -0.00129802
0.000281645 0.0170211 -0.00143851
0.000444173 0.0227062 -0.00163485
0.000482985 0.0236081 -0.0016518
0.000468665 0.0237638 -0.00166323
0.00044203 0.0237917 -0.00167176
0.000418831 0.0237948 -0.00167748
0.000403249 0.0237938 -0.00168133
0.000395252 0.0237935 -0.00168481
0.000393385 0.0237962 -0.0016875
0.00039524 0.0238025 -0.00168939
0.000396974 0.0238134 -0.0016902
0.000392952 0.023829 -0.00168937
0.000375004 0.0238485 -0.00168607
0.000332227 0.0238682 -0.00167957
0.000251792 0.0238803 -0.00166946
0.000122014 0.0238718 -0.00165583
-6.2421e-05 0.0238165 -0.00164074
-0.0002838 0.0236223 -0.00162898
-0.000446873 0.022705 -0.00161925
-0.000223436 0.0170484 -0.00142781
0.000296581 0.0195019 -0.00162059
0.000457335 0.0261757 -0.0018424
0.000486332 0.0272159 -0.00185469
0.000463084 0.0273703 -0.00186175
0.000430831 0.0273843 -0.00186748
0.000404756 0.0273783 -0.00187174
0.000388017 0.0273729 -0.00187512
0.00038072 0.027371 -0.00187801
0.000381243 0.0273737 -0.00188104
0.000387513 0.0273819 -0.00188393
0.000396512 0.0273974 -0.00188624
0.00040305 0.0274219 -0.0018875
0.000399014 0.0274562 -0.00188698
0.000372048 0.0274985 -0.0018841
0.000306302 0.0275423 -0.00187814
0.000184169 0.0275727 -0.00186891
-6.48131e-06 0.0275554 -0.00185802
-0.000251643 0.0273664 -0.00184975
-0.00044564 0.026283 -0.00184059
-0.00022282 0.0195804 -0.00161656
0.000287936 0.0224294 -0.00193367
0.000421907 0.0302016 -0.0022058
0.000426775 0.0313641 -0.00221441
0.000390008 0.031496 -0.00221582
0.000352792 0.0314848 -0.00221773
0.000326981 0.0314648 -0.00221935
0.000313059 0.0314523 -0.0022217
0.000310148 0.0314472 -0.00222416
0.00031682 0.0314487 -0.0022271
0.00033182 0.0314576 -0.0022304
0.000353378 0.0314766 -0.00223368
0.000377617 0.0315092 -0.0022368
0.000397473 0.0315589 -0.00223912
0.000400687 0.0316278 -0.00224013
0.000368533 0.0317134 -0.00223908
0.000276118 0.0318026 -0.0022357
9.89511e-05 0.0318537 -0.00223088
-0.000161095 0.0317048 -0.00222728
-0.000396507 0.0304621 -0.00221688
-0.000198253 0.0225675 -0.00193589
0.000233959 0.0262281 -0.00252766
0.000297258 0.0352453 -0.00290191
0.000256042 0.0364887 -0.00290983
0.000200663 0.0365657 -0.00290425
0.000161294 0.0365152 -0.00290162
0.000140963 0.0364763 -0.00290022
0.000135999 0.0364547 -0.00290028
0.000143404 0.0364445 -0.00290154
0.000161699 0.0364425 -0.00290384
0.000190902 0.0364495 -0.00290684
0.000230769 0.0364688 -0.00291051
0.000280117 0.0365055 -0.00291474
0.000334902 0.0365668 -0.00291927
0.000385549 0.0366602 -0.00292376
0.000413302 0.0367916 -0.00292774
0.000386479 0.0369564 -0.00293091
0.000263001 0.037114 -0.00293352
1.57258e-05 0.0370633 -0.00293632
-0.000268074 0.0357012 -0.00292227
-0.000134037 0.0264195 -0.00253381
8.75129e-05 0.0318149 -0.00373378
3.94827e-06 0.0422865 -0.00431688
-0.000113697 0.0435247 -0.00433038
-0.000190276 0.0435033 -0.00431677
-0.000223308 0.0434009 -0.00430773
-0.000227102 0.0433395 -0.00430251
-0.00021265 0.043307 -0.00429993
-0.000185256 0.0432895 -0.0042992
-0.000146428 0.0432815 -0.00429991
-9.52477e-05 0.043283 -0.00430179
-2.983e-05 0.0432974 -0.00430488
5.21655e-05 0.0433311 -0.00430916
0.000152116 0.043394 -0.00431473
0.000267553 0.0435 -0.00432148
0.000386334 0.0436667 -0.00432955
0.000477352 0.0439082 -0.0043388
0.000480302 0.0442039 -0.00434939
0.000316702 0.0443351 -0.0043598
-8.1908e-07 0.0429615 -0.0043375
-4.0954e-07 0.032026 -0.00373906
-0.000266168 0.0411926 -0.00627719
-0.000625604 0.0533785 -0.00726976
-0.00084972 0.0544536 -0.00729922
-0.000934627 0.0542899 -0.00727876
-0.000937063 0.0541331 -0.00726288
-0.000898841 0.0540511 -0.00725267
-0.000840823 0.0540076 -0.00724648
-0.000771349 0.0539813 -0.00724295
-0.000692246 0.0539648 -0.00724137
-0.000602022 0.0539573 -0.00724139
-0.000496969 0.0539616 -0.00724299
-0.000371048 0.0539837 -0.00724633
-0.000215992 0.0540341 -0.00725163
-2.25894e-05 0.0541304 -0.00725927
0.000214578 0.0543004 -0.00726959
0.00048409 0.0545834 -0.00728302
0.00072922 0.0550051 -0.00729995
0.000811342 0.0553951 -0.00731704
0.00055629 0.0542334 -0.0072789
0.000278145 0.0413588 -0.00627794
-0.0011308 0.0570052 -0.0099522
-0.00194118 0.0705536 -0.0113102
-0.00223755 0.0712378 -0.0113605
-0.00224232 0.070945 -0.0113377
-0.00212475 0.0707625 -0.0113161
-0.00196446 0.0706736 -0.0113009
-0.00179297 0.0706247 -0.0112909
-0.00162107 0.0705928 -0.0112844
-0.00145087 0.0705701 -0.0112806
-0.00128028 0.0705552 -0.0112789
-0.00110424 0.0705496 -0.0112792
-0.000914041 0.0705569 -0.0112817
-0.000695397 0.0705849 -0.0112868
-0.000426247 0.0706484 -0.0112953
-7.41175e-05 0.0707751 -0.0113077
0.000399293 0.0710154 -0.0113245
0.00100994 0.0714435 -0.0113445
0.00164496 0.0720239 -0.0113611
0.0018241 0.0713807 -0.0113059
0.000912049 0.0570857 -0.00995817
-0.00304348 0.0285026 0.0395353
-0.00405742 0.0352768 0.0434663
-0.00395609 0.0356189 0.0435036
-0.00351007 0.0354725 0.0435064
-0.00301787 0.0353813 0.0435272
-0.00256784 0.0353368 0.043545
-0.00217796 0.0353123 0.043557
-0.00184486 0.0352964 0.0435644
-0.00155858 0.035285 0.0435687
-0.00130836 0.0352776 0.0435705
-0.00108335 0.0352748 0.0435698
-0.000870936 0.0352785 0.0435661
-0.000654226 0.0352925 0.0435586
-0.000406969 0.0353242 0.0435455
-8.22212e-05 0.0353876 0.0435247
0.00040954 0.0355077 0.0434951
0.00123568 0.0357218 0.0434612
0.00262784 0.036012 0.0434477
0.00428406 0.0356903 0.0434036
0.00214203 0.0285428 0.0395079
-3.25549e-05 0.000289811 -0.000600529
-4.43109e-05 0.000343578 -0.00071285
-4.7174e-05 0.000349029 -0.000739277
-4.11332e-05 0.000349797 -0.00075315
-2.75027e-05 0.000350079 -0.000761187
-8.35895e-06 0.000350526 -0.000765926
1.42581e-05 0.000351218 -0.000768718
3.8569e-05 0.000352196 -0.000770078
6.2842e-05 0.000353429 -0.000770113
8.53813e-05 0.000354838 -0.000768693
0.000104584 0.000356379 -0.000765487
0.000118819 0.000357974 -0.000760147
0.00012637 0.000359398 -0.000752662
0.000125775 0.00036031 -0.000743166
0.000116177 0.000360548 -0.000731868
9.75973e-05 0.000359899 -0.000719068
7.07927e-05 0.000357874 -0.00070547
3.78555e-05 0.000353963 -0.000691518
1.31898e-06 0.000346041 -0.000673471
6.59489e-07 0.000297154 -0.000575491
-2.42995e-05 0.000851768 -0.000802952
-3.81629e-05 0.00102129 -0.000978308
-4.50941e-05 0.0010406 -0.00101891
-4.23415e-05 0.00104373 -0.00103852
-3.02724e-05 0.00104435 -0.00104935
-1.06696e-05 0.00104489 -0.00105547
1.45017e-05 0.00104594 -0.00105882
4.32739e-05 0.00104767 -0.00106018
7.35645e-05 0.00105006 -0.0010598
0.000103268 0.00105302 -0.00105747
0.000130247 0.0010564 -0.00105272
0.000152122 0.0010599 -0.00104522
0.000166259 0.00106299 -0.00103498
0.000170474 0.00106511 -0.00102198
0.000163121 0.00106563 -0.00100634
0.000143239 0.0010636 -0.000988651
0.000110934 0.00105801 -0.000969772
6.82576e-05 0.00104739 -0.000949929
1.89703e-05 0.00102246 -0.00092221
9.48513e-06 0.000858875 -0.000773655
-9.90295e-06 0.00162284 -0.000998625
-1.85943e-05 0.00198308 -0.00121807
-2.5043e-05 0.00202707 -0.00126956
-2.31445e-05 0.00203475 -0.00129418
-1.19989e-05 0.00203624 -0.00130756
7.07842e-06 0.00203685 -0.00131492
3.2283e-05 0.00203802 -0.00131873
6.16469e-05 0.0020402 -0.00132008
9.30322e-05 0.00204344 -0.00131931
0.000124239 0.00204761 -0.00131615
0.000152863 0.00205244 -0.00131012
0.000176165 0.00205743 -0.00130089
0.000191238 0.00206185 -0.00128821
0.000195382 0.00206476 -0.00127196
0.000186193 0.00206478 -0.00125242
0.000162234 0.00206033 -0.0012303
0.000123023 0.0020496 -0.00120651
6.98225e-05 0.00202945 -0.00118146
8.46675e-06 0.00197761 -0.00114663
4.23338e-06 0.00162657 -0.000963359
8.09192e-06 0.00259607 -0.00124049
7.71716e-06 0.00323302 -0.00150911
3.28199e-06 0.00331544 -0.00157186
5.0192e-06 0.00333057 -0.00160188
1.55665e-05 0.00333377 -0.00161814
3.42604e-05 0.00333463 -0.00162696
5.95136e-05 0.0033358 -0.00163141
8.93403e-05 0.00333812 -0.0016329
0.000121529 0.00334174 -0.00163183
0.000153719 0.00334653 -0.00162796
0.000183259 0.00335215 -0.00162074
0.000207151 0.00335802 -0.00160961
0.000222045 0.00336306 -0.00159426
0.000224517 0.00336575 -0.00157443
0.000211509 0.00336409 -0.0015507
0.00018092 0.00335601 -0.00152361
0.000131722 0.00333869 -0.00149436
6.49277e-05 0.00330633 -0.0014635
-9.86549e-06 0.00321526 -0.00142137
-4.93274e-06 0.00259369 -0.00119832
2.95345e-05 0.00378242 -0.00151922
4.03336e-05 0.00479362 -0.0018426
3.92043e-05 0.00493166 -0.00191696
4.10722e-05 0.00495789 -0.00195263
5.08563e-05 0.00496387 -0.00197198
6.88043e-05 0.00496527 -0.00198246
9.36353e-05 0.00496638 -0.00198771
0.000123402 0.00496853 -0.00198949
0.000155829 0.00497201 -0.00198831
0.000188409 0.0049768 -0.00198385
0.000218383 0.00498256 -0.00197547
0.000242267 0.00498847 -0.00196248
0.000256107 0.00499309 -0.00194445
0.000255813 0.00499463 -0.00192098
0.000237825 0.00499027 -0.00189272
0.000199108 0.00497724 -0.00186033
0.000137938 0.00495157 -0.00182529
5.5478e-05 0.00490376 -0.0017885
-3.31222e-05 0.00475819 -0.00173869
-1.65611e-05 0.00377132 -0.00147022
5.49203e-05 0.0051969 -0.00182442
8.00624e-05 0.00669154 -0.00220644
8.3631e-05 0.00690591 -0.00229236
8.58451e-05 0.00694758 -0.00233372
9.45169e-05 0.00695763 -0.00235631
0.000111128 0.00696004 -0.00236852
0.000134775 0.00696114 -0.00237469
0.00016357 0.00696287 -0.00237693
0.000195299 0.00696581 -0.00237583
0.00022743 0.00697011 -0.00237096
0.000256877 0.00697537 -0.00236157
0.000279721 0.00698055 -0.00234691
0.000291626 0.00698383 -0.0023263
0.000287502 0.0069832 -0.00229944
0.000263198 0.00697525 -0.00226646
0.000214674 0.00695594 -0.00222856
0.000139718 0.0069202 -0.00218746
3.99093e-05 0.00685287 -0.00214475
-6.29659e-05 0.00663376 -0.00208726
-3.1483e-05 0.00517492 -0.00176925
8.4792e-05 0.00685189 -0.00214574
0.000127747 0.00895034 -0.00258837
0.000137496 0.00926511 -0.00268531
0.000140325 0.00932731 -0.00273211
0.000147567 0.00934293 -0.0027578
0.00016216 0.0093469 -0.00277171
0.000183664 0.00934807 -0.0027789
0.000210433 0.00934926 -0.00278179
0.000240428 0.00935144 -0.00278093
0.000270996 0.00935488 -0.00277593
0.00029875 0.00935903 -0.00276593
0.000319321 0.00936284 -0.00275018
0.00032812 0.00936442 -0.00272718
0.00031915 0.00936077 -0.00269698
0.000287037 0.0093481 -0.00265964
0.000227017 0.00932129 -0.00261639
0.000136181 0.00927365 -0.00256925
1.70269e-05 0.00918212 -0.00252051
-0.000100879 0.00886671 -0.00245562
-5.04393e-05 0.00681835 -0.00208524
0.000119397 0.00875354 -0.00247244
0.000183781 0.0115863 -0.00297559
0.000201286 0.0120286 -0.00308237
0.000205067 0.012117 -0.0031339
0.000210544 0.0121397 -0.00316231
0.000222339 0.0121456 -0.00317783
0.000240725 0.0121469 -0.00318612
0.000264433 0.0121476 -0.00318984
0.000291566 0.0121489 -0.00318954
0.000319305 0.0121513 -0.00318491
0.000344199 0.0121542 -0.00317487
0.000361623 0.0121564 -0.00315853
0.000366007 0.012156 -0.00313419
0.00035082 0.0121492 -0.00310139
0.000309448 0.0121312 -0.00306027
0.000236204 0.0120962 -0.00301199
0.000127379 0.012035 -0.00295913
-1.34525e-05 0.0119139 -0.00290474
-0.000146703 0.0114763 -0.00283261
-7.33515e-05 0.0087094 -0.00240769
0.000158553 0.0108999 -0.00279412
0.00024779 0.0146058 -0.00335585
0.000274528 0.0152054 -0.00347051
0.000279488 0.0153257 -0.00352559
0.000282753 0.0153566 -0.0035561
0.000290979 0.0153647 -0.00357302
0.000305354 0.0153663 -0.00358239
0.000325046 0.0153666 -0.00358704
0.000348344 0.0153671 -0.00358767
0.000372323 0.0153685 -0.0035841
0.000393383 0.0153706 -0.00357486
0.000406787 0.0153718 -0.00355866
0.000405915 0.0153696 -0.00353402
0.000383428 0.0153601 -0.00349987
0.000331648 0.0153376 -0.00345605