# vtk DataFile Version 2.0 
Visualization 
ASCII 
DATASET STRUCTURED_GRID 
DIMENSIONS 21 21 11
POINTS 4851 float
-0.1 -0.1 0.9
0 -0.1 0.9
0.1 -0.1 0.9
0.2 -0.1 0.9
0.3 -0.1 0.9
0.4 -0.1 0.9
0.5 -0.1 0.9
0.6 -0.1 0.9
0.7 -0.1 0.9
0.8 -0.1 0.9
0.9 -0.1 0.9
1 -0.1 0.9
1.1 -0.1 0.9
1.2 -0.1 0.9
1.3 -0.1 0.9
1.4 -0.1 0.9
1.5 -0.1 0.9
1.6 -0.1 0.9
1.7 -0.1 0.9
1.8 -0.1 0.9
1.9 -0.1 0.9
-0.1 0 0.9
0 0 0.9
0.1 0 0.9
0.2 0 0.9
0.3 0 0.9
0.4 0 0.9
0.5 0 0.9
0.6 0 0.9
0.7 0 0.9
0.8 0 0.9
0.9 0 0.9
1 0 0.9
1.1 0 0.9
1.2 0 0.9
1.3 0 0.9
1.4 0 0.9
1.5 0 0.9
1.6 0 0.9
1.7 0 0.9
1.8 0 0.9
1.9 0 0.9
-0.1 0.1 0.9
0 0.1 0.9
0.1 0.1 0.9
0.2 0.1 0.9
0.3 0.1 0.9
0.4 0.1 0.9
0.5 0.1 0.9
0.6 0.1 0.9
0.7 0.1 0.9
0.8 0.1 0.9
0.9 0.1 0.9
1 0.1 0.9
1.1 0.1 0.9
1.2 0.1 0.9
1.3 0.1 0.9
1.4 0.1 0.9
1.5 0.1 0.9
1.6 0.1 0.9
1.7 0.1 0.9
1.8 0.1 0.9
1.9 0.1 0.9
-0.1 0.2 0.9
0 0.2 0.9
0.1 0.2 0.9
0.2 0.2 0.9
0.3 0.2 0.9
0.4 0.2 0.9
0.5 0.2 0.9
0.6 0.2 0.9
0.7 0.2 0.9
0.8 0.2 0.9
0.9 0.2 0.9
1 0.2 0.9
1.1 0.2 0.9
1.2 0.2 0.9
1.3 0.2 0.9
1.4 0.2 0.9
1.5 0.2 0.9
1.6 0.2 0.9
1.7 0.2 0.9
1.8 0.2 0.9
1.9 0.2 0.9
-0.1 0.3 0.9
0 0.3 0.9
0.1 0.3 0.9
0.2 0.3 0.9
0.3 0.3 0.9
0.4 0.3 0.9
0.5 0.3 0.9
0.6 0.3 0.9
0.7 0.3 0.9
0.8 0.3 0.9
0.9 0.3 0.9
1 0.3 0.9
1.1 0.3 0.9
1.2 0.3 0.9
1.3 0.3 0.9
1.4 0.3 0.9
1.5 0.3 0.9
1.6 0.3 0.9
1.7 0.3 0.9
1.8 0.3 0.9
1.9 0.3 0.9
-0.1 0.4 0.9
0 0.4 0.9
0.1 0.4 0.9
0.2 0.4 0.9
0.3 0.4 0.9
0.4 0.4 0.9
0.5 0.4 0.9
0.6 0.4 0.9
0.7 0.4 0.9
0.8 0.4 0.9
0.9 0.4 0.9
1 0.4 0.9
1.1 0.4 0.9
1.2 0.4 0.9
1.3 0.4 0.9
1.4 0.4 0.9
1.5 0.4 0.9
1.6 0.4 0.9
1.7 0.4 0.9
1.8 0.4 0.9
1.9 0.4 0.9
-0.1 0.5 0.9
0 0.5 0.9
0.1 0.5 0.9
0.2 0.5 0.9
0.3 0.5 0.9
0.4 0.5 0.9
0.5 0.5 0.9
0.6 0.5 0.9
0.7 0.5 0.9
0.8 0.5 0.9
0.9 0.5 0.9
1 0.5 0.9
1.1 0.5 0.9
1.2 0.5 0.9
1.3 0.5 0.9
1.4 0.5 0.9
1.5 0.5 0.9
1.6 0.5 0.9
1.7 0.5 0.9
1.8 0.5 0.9
1.9 0.5 0.9
-0.1 0.6 0.9
0 0.6 0.9
0.1 0.6 0.9
0.2 0.6 0.9
0.3 0.6 0.9
0.4 0.6 0.9
0.5 0.6 0.9
0.6 0.6 0.9
0.7 0.6 0.9
0.8 0.6 0.9
0.9 0.6 0.9
1 0.6 0.9
1.1 0.6 0.9
1.2 0.6 0.9
1.3 0.6 0.9
1.4 0.6 0.9
1.5 0.6 0.9
1.6 0.6 0.9
1.7 0.6 0.9
1.8 0.6 0.9
1.9 0.6 0.9
-0.1 0.7 0.9
0 0.7 0.9
0.1 0.7 0.9
0.2 0.7 0.9
0.3 0.7 0.9
0.4 0.7 0.9
0.5 0.7 0.9
0.6 0.7 0.9
0.7 0.7 0.9
0.8 0.7 0.9
0.9 0.7 0.9
1 0.7 0.9
1.1 0.7 0.9
1.2 0.7 0.9
1.3 0.7 0.9
1.4 0.7 0.9
1.5 0.7 0.9
1.6 0.7 0.9
1.7 0.7 0.9
1.8 0.7 0.9
1.9 0.7 0.9
-0.1 0.8 0.9
0 0.8 0.9
0.1 0.8 0.9
0.2 0.8 0.9
0.3 0.8 0.9
0.4 0.8 0.9
0.5 0.8 0.9
0.6 0.8 0.9
0.7 0.8 0.9
0.8 0.8 0.9
0.9 0.8 0.9
1 0.8 0.9
1.1 0.8 0.9
1.2 0.8 0.9
1.3 0.8 0.9
1.4 0.8 0.9
1.5 0.8 0.9
1.6 0.8 0.9
1.7 0.8 0.9
1.8 0.8 0.9
1.9 0.8 0.9
-0.1 0.9 0.9
0 0.9 0.9
0.1 0.9 0.9
0.2 0.9 0.9
0.3 0.9 0.9
0.4 0.9 0.9
0.5 0.9 0.9
0.6 0.9 0.9
0.7 0.9 0.9
0.8 0.9 0.9
0.9 0.9 0.9
1 0.9 0.9
1.1 0.9 0.9
1.2 0.9 0.9
1.3 0.9 0.9
1.4 0.9 0.9
1.5 0.9 0.9
1.6 0.9 0.9
1.7 0.9 0.9
1.8 0.9 0.9
1.9 0.9 0.9
-0.1 1 0.9
0 1 0.9
0.1 1 0.9
0.2 1 0.9
0.3 1 0.9
0.4 1 0.9
0.5 1 0.9
0.6 1 0.9
0.7 1 0.9
0.8 1 0.9
0.9 1 0.9
1 1 0.9
1.1 1 0.9
1.2 1 0.9
1.3 1 0.9
1.4 1 0.9
1.5 1 0.9
1.6 1 0.9
1.7 1 0.9
1.8 1 0.9
1.9 1 0.9
-0.1 1.1 0.9
0 1.1 0.9
0.1 1.1 0.9
0.2 1.1 0.9
0.3 1.1 0.9
0.4 1.1 0.9
0.5 1.1 0.9
0.6 1.1 0.9
0.7 1.1 0.9
0.8 1.1 0.9
0.9 1.1 0.9
1 1.1 0.9
1.1 1.1 0.9
1.2 1.1 0.9
1.3 1.1 0.9
1.4 1.1 0.9
1.5 1.1 0.9
1.6 1.1 0.9
1.7 1.1 0.9
1.8 1.1 0.9
1.9 1.1 0.9
-0.1 1.2 0.9
0 1.2 0.9
0.1 1.2 0.9
0.2 1.2 0.9
0.3 1.2 0.9
0.4 1.2 0.9
0.5 1.2 0.9
0.6 1.2 0.9
0.7 1.2 0.9
0.8 1.2 0.9
0.9 1.2 0.9
1 1.2 0.9
1.1 1.2 0.9
1.2 1.2 0.9
1.3 1.2 0.9
1.4 1.2 0.9
1.5 1.2 0.9
1.6 1.2 0.9
1.7 1.2 0.9
1.8 1.2 0.9
1.9 1.2 0.9
-0.1 1.3 0.9
0 1.3 0.9
0.1 1.3 0.9
0.2 1.3 0.9
0.3 1.3 0.9
0.4 1.3 0.9
0.5 1.3 0.9
0.6 1.3 0.9
0.7 1.3 0.9
0.8 1.3 0.9
0.9 1.3 0.9
1 1.3 0.9
1.1 1.3 0.9
1.2 1.3 0.9
1.3 1.3 0.9
1.4 1.3 0.9
1.5 1.3 0.9
1.6 1.3 0.9
1.7 1.3 0.9
1.8 1.3 0.9
1.9 1.3 0.9
-0.1 1.4 0.9
0 1.4 0.9
0.1 1.4 0.9
0.2 1.4 0.9
0.3 1.4 0.9
0.4 1.4 0.9
0.5 1.4 0.9
0.6 1.4 0.9
0.7 1.4 0.9
0.8 1.4 0.9
0.9 1.4 0.9
1 1.4 0.9
1.1 1.4 0.9
1.2 1.4 0.9
1.3 1.4 0.9
1.4 1.4 0.9
1.5 1.4 0.9
1.6 1.4 0.9
1.7 1.4 0.9
1.8 1.4 0.9
1.9 1.4 0.9
-0.1 1.5 0.9
0 1.5 0.9
0.1 1.5 0.9
0.2 1.5 0.9
0.3 1.5 0.9
0.4 1.5 0.9
0.5 1.5 0.9
0.6 1.5 0.9
0.7 1.5 0.9
0.8 1.5 0.9
0.9 1.5 0.9
1 1.5 0.9
1.1 1.5 0.9
1.2 1.5 0.9
1.3 1.5 0.9
1.4 1.5 0.9
1.5 1.5 0.9
1.6 1.5 0.9
1.7 1.5 0.9
1.8 1.5 0.9
1.9 1.5 0.9
-0.1 1.6 0.9
0 1.6 0.9
0.1 1.6 0.9
0.2 1.6 0.9
0.3 1.6 0.9
0.4 1.6 0.9
0.5 1.6 0.9
0.6 1.6 0.9
0.7 1.6 0.9
0.8 1.6 0.9
0.9 1.6 0.9
1 1.6 0.9
1.1 1.6 0.9
1.2 1.6 0.9
1.3 1.6 0.9
1.4 1.6 0.9
1.5 1.6 0.9
1.6 1.6 0.9
1.7 1.6 0.9
1.8 1.6 0.9
1.9 1.6 0.9
-0.1 1.7 0.9
0 1.7 0.9
0.1 1.7 0.9
0.2 1.7 0.9
0.3 1.7 0.9
0.4 1.7 0.9
0.5 1.7 0.9
0.6 1.7 0.9
0.7 1.7 0.9
0.8 1.7 0.9
0.9 1.7 0.9
1 1.7 0.9
1.1 1.7 0.9
1.2 1.7 0.9
1.3 1.7 0.9
1.4 1.7 0.9
1.5 1.7 0.9
1.6 1.7 0.9
1.7 1.7 0.9
1.8 1.7 0.9
1.9 1.7 0.9
-0.1 1.8 0.9
0 1.8 0.9
0.1 1.8 0.9
0.2 1.8 0.9
0.3 1.8 0.9
0.4 1.8 0.9
0.5 1.8 0.9
0.6 1.8 0.9
0.7 1.8 0.9
0.8 1.8 0.9
0.9 1.8 0.9
1 1.8 0.9
1.1 1.8 0.9
1.2 1.8 0.9
1.3 1.8 0.9
1.4 1.8 0.9
1.5 1.8 0.9
1.6 1.8 0.9
1.7 1.8 0.9
1.8 1.8 0.9
1.9 1.8 0.9
-0.1 1.9 0.9
0 1.9 0.9
0.1 1.9 0.9
0.2 1.9 0.9
0.3 1.9 0.9
0.4 1.9 0.9
0.5 1.9 0.9
0.6 1.9 0.9
0.7 1.9 0.9
0.8 1.9 0.9
0.9 1.9 0.9
1 1.9 0.9
1.1 1.9 0.9
1.2 1.9 0.9
1.3 1.9 0.9
1.4 1.9 0.9
1.5 1.9 0.9
1.6 1.9 0.9
1.7 1.9 0.9
1.8 1.9 0.9
1.9 1.9 0.9
-0.1 -0.1 1
0 -0.1 1
0.1 -0.1 1
0.2 -0.1 1
0.3 -0.1 1
0.4 -0.1 1
0.5 -0.1 1
0.6 -0.1 1
0.7 -0.1 1
0.8 -0.1 1
0.9 -0.1 1
1 -0.1 1
1.1 -0.1 1
1.2 -0.1 1
1.3 -0.1 1
1.4 -0.1 1
1.5 -0.1 1
1.6 -0.1 1
1.7 -0.1 1
1.8 -0.1 1
1.9 -0.1 1
-0.1 0 1
0 0 1
0.1 0 1
0.2 0 1
0.3 0 1
0.4 0 1
0.5 0 1
0.6 0 1
0.7 0 1
0.8 0 1
0.9 0 1
1 0 1
1.1 0 1
1.2 0 1
1.3 0 1
1.4 0 1
1.5 0 1
1.6 0 1
1.7 0 1
1.8 0 1
1.9 0 1
-0.1 0.1 1
0 0.1 1
0.1 0.1 1
0.2 0.1 1
0.3 0.1 1
0.4 0.1 1
0.5 0.1 1
0.6 0.1 1
0.7 0.1 1
0.8 0.1 1
0.9 0.1 1
1 0.1 1
1.1 0.1 1
1.2 0.1 1
1.3 0.1 1
1.4 0.1 1
1.5 0.1 1
1.6 0.1 1
1.7 0.1 1
1.8 0.1 1
1.9 0.1 1
-0.1 0.2 1
0 0.2 1
0.1 0.2 1
0.2 0.2 1
0.3 0.2 1
0.4 0.2 1
0.5 0.2 1
0.6 0.2 1
0.7 0.2 1
0.8 0.2 1
0.9 0.2 1
1 0.2 1
1.1 0.2 1
1.2 0.2 1
1.3 0.2 1
1.4 0.2 1
1.5 0.2 1
1.6 0.2 1
1.7 0.2 1
1.8 0.2 1
1.9 0.2 1
-0.1 0.3 1
0 0.3 1
0.1 0.3 1
0.2 0.3 1
0.3 0.3 1
0.4 0.3 1
0.5 0.3 1
0.6 0.3 1
0.7 0.3 1
0.8 0.3 1
0.9 0.3 1
1 0.3 1
1.1 0.3 1
1.2 0.3 1
1.3 0.3 1
1.4 0.3 1
1.5 0.3 1
1.6 0.3 1
1.7 0.3 1
1.8 0.3 1
1.9 0.3 1
-0.1 0.4 1
0 0.4 1
0.1 0.4 1
0.2 0.4 1
0.3 0.4 1
0.4 0.4 1
0.5 0.4 1
0.6 0.4 1
0.7 0.4 1
0.8 0.4 1
0.9 0.4 1
1 0.4 1
1.1 0.4 1
1.2 0.4 1
1.3 0.4 1
1.4 0.4 1
1.5 0.4 1
1.6 0.4 1
1.7 0.4 1
1.8 0.4 1
1.9 0.4 1
-0.1 0.5 1
0 0.5 1
0.1 0.5 1
0.2 0.5 1
0.3 0.5 1
0.4 0.5 1
0.5 0.5 1
0.6 0.5 1
0.7 0.5 1
0.8 0.5 1
0.9 0.5 1
1 0.5 1
1.1 0.5 1
1.2 0.5 1
1.3 0.5 1
1.4 0.5 1
1.5 0.5 1
1.6 0.5 1
1.7 0.5 1
1.8 0.5 1
1.9 0.5 1
-0.1 0.6 1
0 0.6 1
0.1 0.6 1
0.2 0.6 1
0.3 0.6 1
0.4 0.6 1
0.5 0.6 1
0.6 0.6 1
0.7 0.6 1
0.8 0.6 1
0.9 0.6 1
1 0.6 1
1.1 0.6 1
1.2 0.6 1
1.3 0.6 1
1.4 0.6 1
1.5 0.6 1
1.6 0.6 1
1.7 0.6 1
1.8 0.6 1
1.9 0.6 1
-0.1 0.7 1
0 0.7 1
0.1 0.7 1
0.2 0.7 1
0.3 0.7 1
0.4 0.7 1
0.5 0.7 1
0.6 0.7 1
0.7 0.7 1
0.8 0.7 1
0.9 0.7 1
1 0.7 1
1.1 0.7 1
1.2 0.7 1
1.3 0.7 1
1.4 0.7 1
1.5 0.7 1
1.6 0.7 1
1.7 0.7 1
1.8 0.7 1
1.9 0.7 1
-0.1 0.8 1
0 0.8 1
0.1 0.8 1
0.2 0.8 1
0.3 0.8 1
0.4 0.8 1
0.5 0.8 1
0.6 0.8 1
0.7 0.8 1
0.8 0.8 1
0.9 0.8 1
1 0.8 1
1.1 0.8 1
1.2 0.8 1
1.3 0.8 1
1.4 0.8 1
1.5 0.8 1
1.6 0.8 1
1.7 0.8 1
1.8 0.8 1
1.9 0.8 1
-0.1 0.9 1
0 0.9 1
0.1 0.9 1
0.2 0.9 1
0.3 0.9 1
0.4 0.9 1
0.5 0.9 1
0.6 0.9 1
0.7 0.9 1
0.8 0.9 1
0.9 0.9 1
1 0.9 1
1.1 0.9 1
1.2 0.9 1
1.3 0.9 1
1.4 0.9 1
1.5 0.9 1
1.6 0.9 1
1.7 0.9 1
1.8 0.9 1
1.9 0.9 1
-0.1 1 1
0 1 1
0.1 1 1
0.2 1 1
0.3 1 1
0.4 1 1
0.5 1 1
0.6 1 1
0.7 1 1
0.8 1 1
0.9 1 1
1 1 1
1.1 1 1
1.2 1 1
1.3 1 1
1.4 1 1
1.5 1 1
1.6 1 1
1.7 1 1
1.8 1 1
1.9 1 1
-0.1 1.1 1
0 1.1 1
0.1 1.1 1
0.2 1.1 1
0.3 1.1 1
0.4 1.1 1
0.5 1.1 1
0.6 1.1 1
0.7 1.1 1
0.8 1.1 1
0.9 1.1 1
1 1.1 1
1.1 1.1 1
1.2 1.1 1
1.3 1.1 1
1.4 1.1 1
1.5 1.1 1
1.6 1.1 1
1.7 1.1 1
1.8 1.1 1
1.9 1.1 1
-0.1 1.2 1
0 1.2 1
0.1 1.2 1
0.2 1.2 1
0.3 1.2 1
0.4 1.2 1
0.5 1.2 1
0.6 1.2 1
0.7 1.2 1
0.8 1.2 1
0.9 1.2 1
1 1.2 1
1.1 1.2 1
1.2 1.2 1
1.3 1.2 1
1.4 1.2 1
1.5 1.2 1
1.6 1.2 1
1.7 1.2 1
1.8 1.2 1
1.9 1.2 1
-0.1 1.3 1
0 1.3 1
0.1 1.3 1
0.2 1.3 1
0.3 1.3 1
0.4 1.3 1
0.5 1.3 1
0.6 1.3 1
0.7 1.3 1
0.8 1.3 1
0.9 1.3 1
1 1.3 1
1.1 1.3 1
1.2 1.3 1
1.3 1.3 1
1.4 1.3 1
1.5 1.3 1
1.6 1.3 1
1.7 1.3 1
1.8 1.3 1
1.9 1.3 1
-0.1 1.4 1
0 1.4 1
0.1 1.4 1
0.2 1.4 1
0.3 1.4 1
0.4 1.4 1
0.5 1.4 1
0.6 1.4 1
0.7 1.4 1
0.8 1.4 1
0.9 1.4 1
1 1.4 1
1.1 1.4 1
1.2 1.4 1
1.3 1.4 1
1.4 1.4 1
1.5 1.4 1
1.6 1.4 1
1.7 1.4 1
1.8 1.4 1
1.9 1.4 1
-0.1 1.5 1
0 1.5 1
0.1 1.5 1
0.2 1.5 1
0.3 1.5 1
0.4 1.5 1
0.5 1.5 1
0.6 1.5 1
0.7 1.5 1
0.8 1.5 1
0.9 1.5 1
1 1.5 1
1.1 1.5 1
1.2 1.5 1
1.3 1.5 1
1.4 1.5 1
1.5 1.5 1
1.6 1.5 1
1.7 1.5 1
1.8 1.5 1
1.9 1.5 1
-0.1 1.6 1
0 1.6 1
0.1 1.6 1
0.2 1.6 1
0.3 1.6 1
0.4 1.6 1
0.5 1.6 1
0.6 1.6 1
0.7 1.6 1
0.8 1.6 1
0.9 1.6 1
1 1.6 1
1.1 1.6 1
1.2 1.6 1
1.3 1.6 1
1.4 1.6 1
1.5 1.6 1
1.6 1.6 1
1.7 1.6 1
1.8 1.6 1
1.9 1.6 1
-0.1 1.7 1
0 1.7 1
0.1 1.7 1
0.2 1.7 1
0.3 1.7 1
0.4 1.7 1
0.5 1.7 1
0.6 1.7 1
0.7 1.7 1
0.8 1.7 1
0.9 1.7 1
1 1.7 1
1.1 1.7 1
1.2 1.7 1
1.3 1.7 1
1.4 1.7 1
1.5 1.7 1
1.6 1.7 1
1.7 1.7 1
1.8 1.7 1
1.9 1.7 1
-0.1 1.8 1
0 1.8 1
0.1 1.8 1
0.2 1.8 1
0.3 1.8 1
0.4 1.8 1
0.5 1.8 1
0.6 1.8 1
0.7 1.8 1
0.8 1.8 1
0.9 1.8 1
1 1.8 1
1.1 1.8 1
1.2 1.8 1
1.3 1.8 1
1.4 1.8 1
1.5 1.8 1
1.6 1.8 1
1.7 1.8 1
1.8 1.8 1
1.9 1.8 1
-0.1 1.9 1
0 1.9 1
0.1 1.9 1
0.2 1.9 1
0.3 1.9 1
0.4 1.9 1
0.5 1.9 1
0.6 1.9 1
0.7 1.9 1
0.8 1.9 1
0.9 1.9 1
1 1.9 1
1.1 1.9 1
1.2 1.9 1
1.3 1.9 1
1.4 1.9 1
1.5 1.9 1
1.6 1.9 1
1.7 1.9 1
1.8 1.9 1
1.9 1.9 1
-0.1 -0.1 1.1
0 -0.1 1.1
0.1 -0.1 1.1
0.2 -0.1 1.1
0.3 -0.1 1.1
0.4 -0.1 1.1
0.5 -0.1 1.1
0.6 -0.1 1.1
0.7 -0.1 1.1
0.8 -0.1 1.1
0.9 -0.1 1.1
1 -0.1 1.1
1.1 -0.1 1.1
1.2 -0.1 1.1
1.3 -0.1 1.1
1.4 -0.1 1.1
1.5 -0.1 1.1
1.6 -0.1 1.1
1.7 -0.1 1.1
1.8 -0.1 1.1
1.9 -0.1 1.1
-0.1 0 1.1
0 0 1.1
0.1 0 1.1
0.2 0 1.1
0.3 0 1.1
0.4 0 1.1
0.5 0 1.1
0.6 0 1.1
0.7 0 1.1
0.8 0 1.1
0.9 0 1.1
1 0 1.1
1.1 0 1.1
1.2 0 1.1
1.3 0 1.1
1.4 0 1.1
1.5 0 1.1
[...]
CELL_DATA 4000
VECTORS velocity double 
-3.07072e-05 -0.00021717 0.00265814
-5.89572e-05 -0.000267538 0.00303946
-7.73959e-05 -0.000287704 0.0029311
-8.54154e-05 -0.00029683 0.00290421
-8.81115e-05 -0.000300004 0.00291616
-8.91937e-05 -0.000300804 0.00292416
-9.01174e-05 -0.000300875 0.00291903
-9.10111e-05 -0.000300794 0.00290134
-9.1231e-05 -0.000300697 0.00287266
-8.98355e-05 -0.00030051 0.00283412
-8.57895e-05 -0.000300084 0.00278677
-7.81272e-05 -0.000299213 0.00273196
-6.61111e-05 -0.00029762 0.0026716
-4.95516e-05 -0.00029496 0.00260834
-2.92185e-05 -0.000290844 0.00254546
-7.39584e-06 -0.000284748 0.00248824
1.08243e-05 -0.000275895 0.00245355
1.57136e-05 -0.000263319 0.00249565
-4.22759e-06 -0.000246796 0.00267314
-2.11379e-06 -0.000206507 0.002433
-5.17889e-05 -0.000580568 0.00279272
-0.000106451 -0.000739571 0.00241569
-0.000141436 -0.000791243 0.00186637
-0.000158323 -0.000814175 0.00171716
-0.000165644 -0.000823142 0.00171443
-0.000169041 -0.000826188 0.00172598
-0.000170851 -0.000827107 0.00172169
-0.00017155 -0.000827349 0.00169941
-0.000170531 -0.000827288 0.00166092
-0.000166712 -0.000826824 0.00160771
-0.000158768 -0.000825599 0.00154122
-0.000145324 -0.00082308 0.00146335
-0.000125161 -0.000818591 0.00137678
-9.76159e-05 -0.000811295 0.0012852
-6.30021e-05 -0.000800228 0.00119339
-2.31905e-05 -0.00078427 0.00111124
1.66338e-05 -0.000762051 0.00107886
4.29988e-05 -0.000731971 0.00124621
3.08707e-05 -0.000690607 0.00189869
1.54353e-05 -0.00056307 0.00250458
-8.55387e-05 -0.0010406 0.00209998
-0.000165273 -0.00135103 0.000817144
-0.000211029 -0.00144102 -6.74918e-05
-0.000230222 -0.00148003 -0.000298919
-0.000236034 -0.00149621 -0.000312796
-0.000236458 -0.00150245 -0.000299617
-0.000234769 -0.00150484 -0.000302182
-0.000231693 -0.00150582 -0.000324551
-0.000226583 -0.00150606 -0.000365092
-0.000218139 -0.0015054 -0.000422222
-0.000204721 -0.00150326 -0.000494438
-0.000184595 -0.00149871 -0.000579665
-0.000156105 -0.00149058 -0.000674792
-0.000118128 -0.00147751 -0.000775571
-7.05518e-05 -0.00145795 -0.000876422
-1.48422e-05 -0.00143023 -0.000965044
4.39786e-05 -0.00139258 -0.000988478
9.01517e-05 -0.00134321 -0.000737564
8.69885e-05 -0.00127222 0.000261178
4.34942e-05 -0.00101694 0.00180154
-0.000123415 -0.00157114 0.00114908
-0.00023083 -0.00207461 -0.00104718
-0.000288269 -0.00221133 -0.00221464
-0.000309464 -0.002269 -0.00250888
-0.000312766 -0.00229373 -0.00253068
-0.000308867 -0.00230399 -0.00251586
-0.000302204 -0.00230842 -0.00251663
-0.00029386 -0.00231054 -0.00253856
-0.00028318 -0.0023114 -0.00258017
-0.000268632 -0.00231082 -0.00263988
-0.000248213 -0.00230787 -0.00271611
-0.000219752 -0.00230122 -0.00280667
-0.000181152 -0.0022891 -0.002908
-0.000130775 -0.00226954 -0.00301514
-6.81636e-05 -0.00224038 -0.00312157
5.34815e-06 -0.00219935 -0.00321307
8.41198e-05 -0.00214445 -0.00322756
0.000149401 -0.00207329 -0.0029113
0.000152351 -0.00196558 -0.00162368
7.61754e-05 -0.00154202 0.000845019
-0.000166166 -0.00215635 -0.000146883
-0.000305309 -0.00289391 -0.00343375
-0.00037623 -0.00308759 -0.00491849
-0.000399711 -0.00316706 -0.00528209
-0.000400025 -0.00320177 -0.00531343
-0.000390981 -0.00321688 -0.00529746
-0.000378393 -0.00322393 -0.00529652
-0.000363815 -0.00322769 -0.00531794
-0.000346577 -0.00322959 -0.00536054
-0.000324838 -0.00322941 -0.00542273
-0.00029618 -0.00322592 -0.0055028
-0.000257884 -0.00321733 -0.0055984
-0.000207336 -0.00320123 -0.00570554
-0.0001424 -0.0031748 -0.00581839
-6.21457e-05 -0.00313511 -0.00592928
3.19631e-05 -0.00307929 -0.00602176
0.000133454 -0.00300481 -0.00602442
0.000219498 -0.00290839 -0.00563578
0.000227647 -0.00275424 -0.00402671
0.000113824 -0.00212254 -0.000456062
-0.000216016 -0.00277309 -0.00191915
-0.000392297 -0.00378179 -0.00658478
-0.000478895 -0.00404338 -0.00846214
-0.000504835 -0.00414797 -0.00891289
-0.000501417 -0.004194 -0.00895792
-0.000486155 -0.00421466 -0.00894197
-0.000466501 -0.00422487 -0.00893981
-0.000444555 -0.00423077 -0.0089609
-0.000419627 -0.00423423 -0.0090044
-0.000389574 -0.00423498 -0.00906888
-0.000351494 -0.00423151 -0.00915257
-0.00030197 -0.00422147 -0.00925274
-0.00023763 -0.00420171 -0.00936496
-0.000155725 -0.00416846 -0.00948253
-5.48798e-05 -0.00411772 -0.00959644
6.35271e-05 -0.00404574 -0.00968771
0.000191691 -0.00394936 -0.00967345
0.000302181 -0.00382332 -0.00919496
0.000316049 -0.00361194 -0.00719071
0.000158024 -0.00273601 -0.00223225
-0.000274212 -0.00338096 -0.00429001
-0.000493759 -0.00468873 -0.010693
-0.000598376 -0.00502856 -0.0130587
-0.000626821 -0.00516124 -0.0136195
-0.000618704 -0.00521956 -0.0136839
-0.000595963 -0.00524629 -0.0136698
-0.000567994 -0.00526011 -0.0136672
-0.000537494 -0.00526865 -0.0136884
-0.000503769 -0.00527419 -0.0137328
-0.000464352 -0.00527655 -0.0137992
-0.000415757 -0.00527397 -0.0138859
-0.000353732 -0.00526341 -0.0139898
-0.000273931 -0.00524089 -0.0141057
-0.00017268 -0.00520151 -0.0142262
-4.79863e-05 -0.00513999 -0.0143408
9.88536e-05 -0.00505119 -0.0144275
0.000258747 -0.00493089 -0.0143898
0.000398323 -0.0047709 -0.0137988
0.000419231 -0.00449113 -0.0113062
0.000209615 -0.00334314 -0.00460451
-0.000340885 -0.00391485 -0.00737782
-0.000609806 -0.00553333 -0.0159386
-0.000734596 -0.00595946 -0.0189045
-0.000765376 -0.00612211 -0.0196028
-0.000751497 -0.00619294 -0.0196934
-0.000720002 -0.00622572 -0.0196836
-0.000682447 -0.00624326 -0.0196818
-0.000642245 -0.00625476 -0.0197037
-0.000598812 -0.00626301 -0.0197491
-0.000549307 -0.00626784 -0.0198169
-0.000489487 -0.00626728 -0.0199056
-0.000414148 -0.00625771 -0.0200116
-0.000317702 -0.0062342 -0.0201293
-0.000195252 -0.00619059 -0.0202501
-4.37039e-05 -0.00611984 -0.0203621
0.000135889 -0.00601505 -0.0204397
0.000332992 -0.00586994 -0.0203702
0.000507122 -0.00567231 -0.01964
0.000536929 -0.00531381 -0.0165506
0.000268464 -0.00388001 -0.00768984
-0.000414827 -0.0042789 -0.0112849
-0.000738208 -0.00619368 -0.0224787
-0.000884639 -0.00670941 -0.0261722
-0.000917222 -0.00690167 -0.0270392
-0.000896353 -0.00698381 -0.0271641
-0.000854841 -0.00702183 -0.0271615
-0.000806646 -0.00704271 -0.0271618
-0.000755961 -0.00705722 -0.0271849
-0.000702348 -0.0070687 -0.0272315
-0.000642592 -0.00707697 -0.0273002
-0.000571618 -0.0070799 -0.0273895
-0.000483135 -0.00707351 -0.027496
-0.000370054 -0.007052 -0.0276131
-0.000225669 -0.00700771 -0.0277311
-4.53704e-05 -0.00693154 -0.0278363
0.000170737 -0.00681389 -0.0278994
0.000410447 -0.00664567 -0.0277884
0.000625187 -0.00640839 -0.0268886
0.000666469 -0.00596336 -0.0230788
0.000333235 -0.00425223 -0.0115895
-0.000492778 -0.00434339 -0.0160705
-0.000873174 -0.00650156 -0.03041
-0.00104117 -0.00710195 -0.0349697
-0.00107437 -0.00731973 -0.036039
-0.0010453 -0.00740986 -0.0362066
-0.000992795 -0.00745107 -0.0362141
-0.000933357 -0.00747423 -0.036218
-0.000872053 -0.00749131 -0.0362428
-0.000808535 -0.00750617 -0.0362904
-0.000739281 -0.00751876 -0.0363596
-0.000658519 -0.00752694 -0.0364484
-0.000558713 -0.00752668 -0.0365533
-0.000430969 -0.00751148 -0.0366674
-0.00026626 -0.0074723 -0.0367795
-5.74672e-05 -0.0073976 -0.0368742
0.000196866 -0.00727436 -0.0369177
0.000483728 -0.0070887 -0.0367554
0.000745006 -0.00681369 -0.0356527
0.000801354 -0.00627919 -0.0309874
0.000400677 -0.00433179 -0.0163627
-0.000568529 -0.0039475 -0.021715
-0.00100353 -0.0062431 -0.0397153
-0.00119042 -0.00691062 -0.0452831
-0.00122215 -0.00714392 -0.0465879
-0.00118375 -0.00723551 -0.0468051
-0.00111992 -0.00727617 -0.0468248
-0.00104947 -0.00729968 -0.0468334
-0.000978353 -0.00731838 -0.0468602
-0.000906363 -0.00733629 -0.0469084
-0.000829825 -0.0073537 -0.0469772
-0.000742473 -0.00736887 -0.0470646
-0.000635548 -0.00737807 -0.0471667
-0.000498171 -0.00737475 -0.0472761
-0.000318394 -0.00734891 -0.0473807
-8.56207e-05 -0.00728666 -0.0474631
0.000204963 -0.00717061 -0.0474845
0.0005405 -0.00698 -0.0472635
0.000853174 -0.00667577 -0.0459253
0.000929321 -0.0060573 -0.040264
0.000464661 -0.00395887 -0.0219903
-0.000631759 -0.00291309 -0.0280804
-0.0011107 -0.00517172 -0.0502075
-0.00130942 -0.00587014 -0.0569157
-0.00133626 -0.00610074 -0.0584835
-0.00128775 -0.00618335 -0.0587535
-0.00121342 -0.00621777 -0.0587848
-0.00113367 -0.00623856 -0.0587976
-0.00105506 -0.00625723 -0.0588261
-0.000977653 -0.0062773 -0.0588743
-0.000897956 -0.00629942 -0.0589419
-0.000809511 -0.00632276 -0.059027
-0.00070273 -0.00634456 -0.0591259
-0.000564895 -0.0063593 -0.059231
-0.000380799 -0.00635706 -0.0593297
-0.000135017 -0.00632243 -0.0594027
0.000182805 -0.00623332 -0.0594056
0.000562685 -0.00605991 -0.0591258
0.000928426 -0.00574594 -0.0575255
0.00103056 -0.00506264 -0.0507329
0.000515282 -0.00295491 -0.0283376
-0.000666411 -0.00107564 -0.0348845
-0.00116549 -0.00304046 -0.0614892
-0.00136267 -0.00370746 -0.069442
-0.00137961 -0.00390611 -0.0712882
-0.00132105 -0.00396485 -0.0716075
-0.00123892 -0.00398572 -0.0716456
-0.00115382 -0.00399995 -0.0716596
-0.00107229 -0.00401616 -0.0716881
-0.000994748 -0.00403666 -0.071735
-0.000918309 -0.00406243 -0.0718002
-0.000836928 -0.00409383 -0.0718827
-0.000741075 -0.00413019 -0.0719793
-0.000616849 -0.00416825 -0.0720832
-0.000446114 -0.00420034 -0.0721823
-0.000207559 -0.00421136 -0.0722567
0.000117354 -0.00417614 -0.0722556
0.000526381 -0.00405427 -0.07193
0.000939795 -0.00376692 -0.0700552
0.00107522 -0.00306044 -0.0620166
0.000537608 -0.0011528 -0.0351275
-0.00064816 0.0016645 -0.0416966
-0.00112396 0.000341829 -0.0729418
-0.00129748 -0.000197138 -0.0821959
-0.00129818 -0.000321736 -0.0843172
-0.00123158 -0.00033782 -0.0846733
-0.00114734 -0.000337118 -0.0847091
-0.00106399 -0.000340762 -0.0847181
-0.000987248 -0.000351743 -0.0847426
-0.000917837 -0.00037023 -0.0847857
-0.000853807 -0.000397339 -0.0848473
-0.000790548 -0.000434974 -0.0849273
-0.000719743 -0.00048529 -0.0850244
-0.000628115 -0.000549042 -0.085134
-0.000495784 -0.000623258 -0.0852466
-0.000296225 -0.000697319 -0.0853432
-1.64507e-07 -0.000746859 -0.0853679
0.000404327 -0.000723348 -0.0850287
0.000844978 -0.000521847 -0.0828886
0.00101963 0.000131336 -0.0735265
0.000509815 0.00155396 -0.0419357
-0.000540979 0.00526433 -0.0479517
-0.000922142 0.00502801 -0.0836602
-0.00103908 0.00475857 -0.0941654
-0.00101643 0.00476329 -0.0965248
-0.00094718 0.0048104 -0.0968923
-0.000870985 0.00483995 -0.0969114
-0.000801065 0.00485018 -0.0969068
-0.000741166 0.00484706 -0.0969216
-0.000692134 0.00483342 -0.096957
-0.000653227 0.00480847 -0.0970127
-0.000622095 0.00476861 -0.0970901
-0.000593314 0.00470859 -0.0971908
-0.000556579 0.00462238 -0.0973148
-0.000493828 0.00450542 -0.097458
-0.000376168 0.00435882 -0.0976071
-0.000164399 0.00419776 -0.0977027
0.00017403 0.0040694 -0.0974067
0.000592706 0.00409841 -0.0950513
0.000803912 0.00456668 -0.0843858
0.000401956 0.0051343 -0.0482026
-0.000286 0.00941921 -0.0525926
-0.000463585 0.0107951 -0.0915467
-0.000481246 0.0109848 -0.10289
-0.000431187 0.0111809 -0.105358
-0.000371408 0.011308 -0.105693
-0.000320879 0.0113702 -0.105676
-0.000283375 0.0113957 -0.105648
-0.000259347 0.0114021 -0.105647
-0.000249043 0.0113961 -0.105671
-0.000253084 0.0113774 -0.105718
-0.000271685 0.0113413 -0.105793
-0.00030381 0.0112797 -0.1059
-0.000344987 0.0111815 -0.106046
-0.000383929 0.0110331 -0.106238
-0.000396872 0.0108215 -0.106472
-0.000342256 0.0105419 -0.106692
-0.000167946 0.0102199 -0.106522
0.000128044 0.00997213 -0.104099
0.000341036 0.0100495 -0.0925087
0.000170518 0.00929863 -0.0528724
0.000205596 0.0133681 -0.0519227
0.000381 0.0168745 -0.0886684
0.000505966 0.0177264 -0.0989428
0.000575886 0.0181607 -0.101021
0.000601158 0.018371 -0.101213
0.000596192 0.018463 -0.101137
0.000570864 0.0185024 -0.101078
0.000529644 0.0185187 -0.101057
0.000473616 0.0185221 -0.101066
0.000401583 0.018513 -0.101103
0.000310951 0.0184867 -0.101173
0.000198244 0.0184337 -0.101286
5.99077e-05 0.0183398 -0.101457
-0.000104636 0.0181843 -0.101702
-0.000287904 0.0179392 -0.102038
-0.000464737 0.0175722 -0.102427
-0.000584114 0.0170628 -0.10252
-0.000588874 0.0164623 -0.100543
-0.00048952 0.01589 -0.0899168
-0.00024476 0.0132921 -0.052238
0.00100771 0.0155946 -0.0315094
0.00168653 0.0214019 -0.047327
0.00196978 0.0229886 -0.0505787
0.00202514 0.0236383 -0.0508044
0.00196945 0.0239076 -0.0505668
0.00186175 0.0240172 -0.0503864
0.00172854 0.0240654 -0.0502929
0.00158081 0.0240896 -0.0502534
0.0014219 0.0241016 -0.0502489
0.00125129 0.0241028 -0.0502757
0.00106538 0.0240893 -0.0503389
0.000857269 0.0240527 -0.050451
0.000616414 0.0239794 -0.0506323
0.000327814 0.0238469 -0.050912
-2.68907e-05 0.0236202 -0.0513274
-0.000464782 0.0232448 -0.0519024
-0.000985502 0.0226462 -0.052525
-0.00152212 0.0217521 -0.0524555
-0.00177798 0.0203824 -0.0487825
-0.000888991 0.0155686 -0.0318626
0.00195112 0.0137 0.0584429
0.00311181 0.0203803 0.105485
0.00346212 0.0221736 0.118605
0.00341185 0.0228219 0.12207
0.00320122 0.0230708 0.123046
0.00293434 0.0231693 0.123362
0.0026524 0.0232135 0.123482
0.00237098 0.0232373 0.123531
0.00209482 0.0232512 0.123544
0.0018235 0.0232571 0.123527
0.00155287 0.0232529 0.123476
0.00127461 0.0232331 0.12338
0.000974151 0.0231881 0.12322
0.000626862 0.0231014 0.122962
0.000190734 0.0229447 0.122549
-0.000404277 0.0226676 0.121854
-0.00125759 0.022184 0.120488
-0.0023994 0.0213487 0.116847
-0.00325706 0.0196911 0.104083
-0.00162853 0.0136655 0.0580045
0.00170557 0.00685002 0.388955
0.00267059 0.0101902 0.527543
0.00282972 0.0110868 0.551534
0.00262758 0.0114109 0.556052
0.0023204 0.0115354 0.557045
0.00200805 0.0115847 0.557308
0.00172148 0.0116068 0.557393
0.00146633 0.0116186 0.557423
0.00123967 0.0116256 0.55743
0.00103591 0.0116286 0.557418
0.000848285 0.0116264 0.557385
0.000668437 0.0116165 0.557327
0.000484373 0.011594 0.55723
0.000276167 0.0115507 0.557073
6.95861e-06 0.0114723 0.556807
-0.000394579 0.0113338 0.556302
-0.00105025 0.011092 0.555044
-0.00204125 0.0106744 0.550393
-0.00282244 0.00984556 0.5266
-0.00141122 0.00683275 0.388407
-8.31768e-06 -0.000174167 0.00302737
-1.84052e-05 -0.000210645 0.00350345
-2.74424e-05 -0.000223665 0.00340355
-3.3238e-05 -0.000229554 0.00338113
-3.83513e-05 -0.000231441 0.00339738
-4.47018e-05 -0.000231794 0.00340821
-5.27503e-05 -0.000231784 0.00340453
-6.20288e-05 -0.000231816 0.00338729
-7.1624e-05 -0.000231977 0.00335818
-8.03877e-05 -0.000232216 0.00331822
-8.70757e-05 -0.000232427 0.00326825
-9.03598e-05 -0.000232407 0.0032094
-8.89489e-05 -0.000231884 0.00314344
-8.20345e-05 -0.000230528 0.00307311
-6.97064e-05 -0.000227898 0.00300216
-5.37366e-05 -0.000223514 0.00293691
-3.89814e-05 -0.000216894 0.00289613
-3.40728e-05 -0.00020754 0.00293771
-4.75009e-05 -0.000195528 0.00311735
-2.37504e-05 -0.000161952 0.00280052
-1.81945e-05 -0.000492508 0.0033027
-4.31801e-05 -0.000618792 0.0030541
-6.1673e-05 -0.000654989 0.00250482
-7.26501e-05 -0.000670469 0.0023581
-8.09714e-05 -0.000676026 0.00236092
-8.9795e-05 -0.00067752 0.00237662
-0.000100108 -0.000677814 0.00237454
-0.000111605 -0.000677992 0.0023529
-0.000123318 -0.000678341 0.00231367
-0.00013389 -0.00067876 0.00225823
-0.000141672 -0.000678947 0.00218774
-0.000144812 -0.000678435 0.00210377
-0.000141401 -0.000676571 0.00200886
-0.00012991 -0.000672489 0.00190675
-0.000109808 -0.000665176 0.00180285
-8.25338e-05 -0.000653532 0.00170861
-5.3224e-05 -0.00063654 0.00166769
-3.37645e-05 -0.000613697 0.00183793
-4.01025e-05 -0.000582604 0.00250594
-2.00513e-05 -0.000475194 0.00300844
-4.14328e-05 -0.000930145 0.00270077
-8.3935e-05 -0.00119348 0.00154521
-0.000110221 -0.00126099 0.000652628
-0.000123176 -0.00128859 0.00042286
-0.000130956 -0.00129909 0.000415691
-0.000138383 -0.00130242 0.000434035
-0.000147071 -0.00130341 0.000434279
-0.000156885 -0.00130395 0.000412815
-0.00016678 -0.00130457 0.000371502
-0.0001752 -0.00130514 0.000311778
-0.000180221 -0.00130517 0.000234818
-0.000179621 -0.00130383 0.000142314
-0.000170984 -0.00129998 3.71135e-05
-0.000152279 -0.00129218 -7.64554e-05
-0.000122466 -0.00127876 -0.000192122
-8.2637e-05 -0.00125802 -0.000295759
-3.8313e-05 -0.00122859 -0.000329848
-3.59974e-06 -0.00118994 -7.43124e-05
-2.80769e-06 -0.00113392 0.000951087
-1.40384e-06 -0.000909076 0.00239364
-6.96766e-05 -0.0014797 0.00186018
-0.000133125 -0.00193174 -0.000206488
-0.000168631 -0.00204088 -0.00138661
-0.000183719 -0.00208373 -0.00167867
-0.000190395 -0.00210062 -0.00169213
-0.000195502 -0.00210659 -0.0016709
-0.000201473 -0.00210872 -0.0016681
-0.000208402 -0.00210994 -0.00168873
-0.000215211 -0.00211107 -0.00173108
-0.00022014 -0.00211193 -0.00179371
-0.000220925 -0.00211177 -0.00187542
-0.000214858 -0.00210938 -0.00197452
-0.000199043 -0.00210308 -0.00208778
-0.000170845 -0.00209072 -0.00221021
-0.000128794 -0.00206993 -0.00233452
-7.38615e-05 -0.00203827 -0.00244433
-1.2395e-05 -0.00199416 -0.0024722
3.83898e-05 -0.00193659 -0.00215093
4.47249e-05 -0.00184699 -0.000828533
2.23624e-05 -0.00145514 0.00154464
-0.000103059 -0.00214322 0.000686808
-0.000191642 -0.00284127 -0.00247001
-0.000238231 -0.00300501 -0.00397273
-0.000255778 -0.00306713 -0.00433341
-0.000260932 -0.00309217 -0.0043545
-0.000262943 -0.00310173 -0.00433065
-0.000265324 -0.00310566 -0.00432526
-0.000268456 -0.00310798 -0.00434494
-0.000271223 -0.00310992 -0.00438814
-0.000271609 -0.00311125 -0.00445351
-0.000266965 -0.00311099 -0.00453985
-0.00025406 -0.00310748 -0.00464535
-0.000229326 -0.00309835 -0.00476652
-0.00018952 -0.0030807 -0.00489752
-0.000132602 -0.0030512 -0.00502982
-5.96666e-05 -0.00300672 -0.00514446
2.1904e-05 -0.00294503 -0.00516358
9.08792e-05 -0.00286415 -0.00476958
0.000102217 -0.00272912 -0.0031165
5.11086e-05 -0.00211528 0.00036307
-0.000143602 -0.00291677 -0.000964801
-0.000262728 -0.00392179 -0.00550889
-0.000322688 -0.00415532 -0.00741238
-0.00034295 -0.00424128 -0.0078599
-0.000345887 -0.00427644 -0.00789269
-0.000343783 -0.00429061 -0.00786729
-0.000341389 -0.00429699 -0.00785965
-0.000339533 -0.00430095 -0.00787841
-0.000337049 -0.00430411 -0.00792234
-0.000331687 -0.00430626 -0.00799022
-0.000320326 -0.00430612 -0.00808092
-0.000299056 -0.00430154 -0.00819242
-0.000263537 -0.00428943 -0.00832088
-0.000209703 -0.0042659 -0.00845973
-0.000134936 -0.00422653 -0.00859894
-4.02019e-05 -0.00416706 -0.00871656
6.55498e-05 -0.00408459 -0.00872209
0.000156289 -0.00397491 -0.00823716
0.00017293 -0.00378026 -0.00617652
8.6465e-05 -0.00288587 -0.00129555
-0.000192942 -0.00378032 -0.00323456
-0.000349109 -0.00515317 -0.00953994
-0.000424989 -0.00547289 -0.0119442
-0.000448185 -0.00558759 -0.0125025
-0.000448011 -0.0056347 -0.0125527
-0.000440496 -0.00565453 -0.0125276
-0.000431967 -0.00566406 -0.0125185
-0.000423733 -0.00567019 -0.0125366
-0.000414652 -0.00567505 -0.0125812
-0.000402187 -0.00567846 -0.0126511
-0.000382697 -0.00567889 -0.0127455
-0.000351469 -0.00567361 -0.0128619
-0.000303176 -0.00565871 -0.0129963
-0.000232683 -0.00562916 -0.0131412
-0.000136487 -0.00557916 -0.0132852
-1.55761e-05 -0.00550301 -0.0134026
0.000119553 -0.00539647 -0.0133879
0.000236603 -0.00525195 -0.0127883
0.000259451 -0.00498147 -0.0102223
0.000129726 -0.00374756 -0.00356953
-0.000252047 -0.00468828 -0.00626531
-0.00045221 -0.00648344 -0.0147754
-0.000546721 -0.00690587 -0.0177984
-0.000572919 -0.0070538 -0.0184964
-0.000568663 -0.00711438 -0.0185715
-0.000554315 -0.00714051 -0.0185492
-0.000538112 -0.00715371 -0.0185398
-0.000522013 -0.00716253 -0.018558
-0.000504957 -0.00716962 -0.0186031
-0.000484099 -0.0071749 -0.0186744
-0.000455166 -0.00717659 -0.0187711
-0.000412531 -0.00717144 -0.0188908
-0.000349627 -0.00715465 -0.0190289
-0.000259944 -0.00711984 -0.0191771
-0.000138751 -0.00705942 -0.0193221
1.32815e-05 -0.0069658 -0.0194346
0.00018367 -0.00683261 -0.0193907
0.000332586 -0.0066471 -0.018648
0.000363176 -0.00628336 -0.0154621
0.000181588 -0.00465576 -0.00659998
-0.000320803 -0.00555886 -0.0101925
-0.000571791 -0.00781495 -0.021415
-0.000687238 -0.0083543 -0.0251924
-0.000716283 -0.00853846 -0.0260639
-0.000706681 -0.00861287 -0.0261728
-0.000684025 -0.00864538 -0.0261567
-0.000658661 -0.0086624 -0.0261486