# vtk DataFile Version 2.0 
Visualization 
ASCII 
DATASET STRUCTURED_GRID 
DIMENSIONS 21 21 11
POINTS 4851 float
-0.1 -0.1 -0.1
0 -0.1 -0.1
0.1 -0.1 -0.1
0.2 -0.1 -0.1
0.3 -0.1 -0.1
0.4 -0.1 -0.1
0.5 -0.1 -0.1
0.6 -0.1 -0.1
0.7 -0.1 -0.1
0.8 -0.1 -0.1
0.9 -0.1 -0.1
1 -0.1 -0.1
1.1 -0.1 -0.1
1.2 -0.1 -0.1
1.3 -0.1 -0.1
1.4 -0.1 -0.1
1.5 -0.1 -0.1
1.6 -0.1 -0.1
1.7 -0.1 -0.1
1.8 -0.1 -0.1
1.9 -0.1 -0.1
-0.1 0 -0.1
0 0 -0.1
0.1 0 -0.1
0.2 0 -0.1
0.3 0 -0.1
0.4 0 -0.1
0.5 0 -0.1
0.6 0 -0.1
0.7 0 -0.1
0.8 0 -0.1
0.9 0 -0.1
1 0 -0.1
1.1 0 -0.1
1.2 0 -0.1
1.3 0 -0.1
1.4 0 -0.1
1.5 0 -0.1
1.6 0 -0.1
1.7 0 -0.1
1.8 0 -0.1
1.9 0 -0.1
-0.1 0.1 -0.1
0 0.1 -0.1
0.1 0.1 -0.1
0.2 0.1 -0.1
0.3 0.1 -0.1
0.4 0.1 -0.1
0.5 0.1 -0.1
0.6 0.1 -0.1
0.7 0.1 -0.1
0.8 0.1 -0.1
0.9 0.1 -0.1
1 0.1 -0.1
1.1 0.1 -0.1
1.2 0.1 -0.1
1.3 0.1 -0.1
1.4 0.1 -0.1
1.5 0.1 -0.1
1.6 0.1 -0.1
1.7 0.1 -0.1
1.8 0.1 -0.1
1.9 0.1 -0.1
-0.1 0.2 -0.1
0 0.2 -0.1
0.1 0.2 -0.1
0.2 0.2 -0.1
0.3 0.2 -0.1
0.4 0.2 -0.1
0.5 0.2 -0.1
0.6 0.2 -0.1
0.7 0.2 -0.1
0.8 0.2 -0.1
0.9 0.2 -0.1
1 0.2 -0.1
1.1 0.2 -0.1
1.2 0.2 -0.1
1.3 0.2 -0.1
1.4 0.2 -0.1
1.5 0.2 -0.1
1.6 0.2 -0.1
1.7 0.2 -0.1
1.8 0.2 -0.1
1.9 0.2 -0.1
-0.1 0.3 -0.1
0 0.3 -0.1
0.1 0.3 -0.1
0.2 0.3 -0.1
0.3 0.3 -0.1
0.4 0.3 -0.1
0.5 0.3 -0.1
0.6 0.3 -0.1
0.7 0.3 -0.1
0.8 0.3 -0.1
0.9 0.3 -0.1
1 0.3 -0.1
1.1 0.3 -0.1
1.2 0.3 -0.1
1.3 0.3 -0.1
1.4 0.3 -0.1
1.5 0.3 -0.1
1.6 0.3 -0.1
1.7 0.3 -0.1
1.8 0.3 -0.1
1.9 0.3 -0.1
-0.1 0.4 -0.1
0 0.4 -0.1
0.1 0.4 -0.1
0.2 0.4 -0.1
0.3 0.4 -0.1
0.4 0.4 -0.1
0.5 0.4 -0.1
0.6 0.4 -0.1
0.7 0.4 -0.1
0.8 0.4 -0.1
0.9 0.4 -0.1
1 0.4 -0.1
1.1 0.4 -0.1
1.2 0.4 -0.1
1.3 0.4 -0.1
1.4 0.4 -0.1
1.5 0.4 -0.1
1.6 0.4 -0.1
1.7 0.4 -0.1
1.8 0.4 -0.1
1.9 0.4 -0.1
-0.1 0.5 -0.1
0 0.5 -0.1
0.1 0.5 -0.1
0.2 0.5 -0.1
0.3 0.5 -0.1
0.4 0.5 -0.1
0.5 0.5 -0.1
0.6 0.5 -0.1
0.7 0.5 -0.1
0.8 0.5 -0.1
0.9 0.5 -0.1
1 0.5 -0.1
1.1 0.5 -0.1
1.2 0.5 -0.1
1.3 0.5 -0.1
1.4 0.5 -0.1
1.5 0.5 -0.1
1.6 0.5 -0.1
1.7 0.5 -0.1
1.8 0.5 -0.1
1.9 0.5 -0.1
-0.1 0.6 -0.1
0 0.6 -0.1
0.1 0.6 -0.1
0.2 0.6 -0.1
0.3 0.6 -0.1
0.4 0.6 -0.1
0.5 0.6 -0.1
0.6 0.6 -0.1
0.7 0.6 -0.1
0.8 0.6 -0.1
0.9 0.6 -0.1
1 0.6 -0.1
1.1 0.6 -0.1
1.2 0.6 -0.1
1.3 0.6 -0.1
1.4 0.6 -0.1
1.5 0.6 -0.1
1.6 0.6 -0.1
1.7 0.6 -0.1
1.8 0.6 -0.1
1.9 0.6 -0.1
-0.1 0.7 -0.1
0 0.7 -0.1
0.1 0.7 -0.1
0.2 0.7 -0.1
0.3 0.7 -0.1
0.4 0.7 -0.1
0.5 0.7 -0.1
0.6 0.7 -0.1
0.7 0.7 -0.1
0.8 0.7 -0.1
0.9 0.7 -0.1
1 0.7 -0.1
1.1 0.7 -0.1
1.2 0.7 -0.1
1.3 0.7 -0.1
1.4 0.7 -0.1
1.5 0.7 -0.1
1.6 0.7 -0.1
1.7 0.7 -0.1
1.8 0.7 -0.1
1.9 0.7 -0.1
-0.1 0.8 -0.1
0 0.8 -0.1
0.1 0.8 -0.1
0.2 0.8 -0.1
0.3 0.8 -0.1
0.4 0.8 -0.1
0.5 0.8 -0.1
0.6 0.8 -0.1
0.7 0.8 -0.1
0.8 0.8 -0.1
0.9 0.8 -0.1
1 0.8 -0.1
1.1 0.8 -0.1
1.2 0.8 -0.1
1.3 0.8 -0.1
1.4 0.8 -0.1
1.5 0.8 -0.1
1.6 0.8 -0.1
1.7 0.8 -0.1
1.8 0.8 -0.1
1.9 0.8 -0.1
-0.1 0.9 -0.1
0 0.9 -0.1
0.1 0.9 -0.1
0.2 0.9 -0.1
0.3 0.9 -0.1
0.4 0.9 -0.1
0.5 0.9 -0.1
0.6 0.9 -0.1
0.7 0.9 -0.1
0.8 0.9 -0.1
0.9 0.9 -0.1
1 0.9 -0.1
1.1 0.9 -0.1
1.2 0.9 -0.1
1.3 0.9 -0.1
1.4 0.9 -0.1
1.5 0.9 -0.1
1.6 0.9 -0.1
1.7 0.9 -0.1
1.8 0.9 -0.1
1.9 0.9 -0.1
-0.1 1 -0.1
0 1 -0.1
0.1 1 -0.1
0.2 1 -0.1
0.3 1 -0.1
0.4 1 -0.1
0.5 1 -0.1
0.6 1 -0.1
0.7 1 -0.1
0.8 1 -0.1
0.9 1 -0.1
1 1 -0.1
1.1 1 -0.1
1.2 1 -0.1
1.3 1 -0.1
1.4 1 -0.1
1.5 1 -0.1
1.6 1 -0.1
1.7 1 -0.1
1.8 1 -0.1
1.9 1 -0.1
-0.1 1.1 -0.1
0 1.1 -0.1
0.1 1.1 -0.1
0.2 1.1 -0.1
0.3 1.1 -0.1
0.4 1.1 -0.1
0.5 1.1 -0.1
0.6 1.1 -0.1
0.7 1.1 -0.1
0.8 1.1 -0.1
0.9 1.1 -0.1
1 1.1 -0.1
1.1 1.1 -0.1
1.2 1.1 -0.1
1.3 1.1 -0.1
1.4 1.1 -0.1
1.5 1.1 -0.1
1.6 1.1 -0.1
1.7 1.1 -0.1
1.8 1.1 -0.1
1.9 1.1 -0.1
-0.1 1.2 -0.1
0 1.2 -0.1
0.1 1.2 -0.1
0.2 1.2 -0.1
0.3 1.2 -0.1
0.4 1.2 -0.1
0.5 1.2 -0.1
0.6 1.2 -0.1
0.7 1.2 -0.1
0.8 1.2 -0.1
0.9 1.2 -0.1
1 1.2 -0.1
1.1 1.2 -0.1
1.2 1.2 -0.1
1.3 1.2 -0.1
1.4 1.2 -0.1
1.5 1.2 -0.1
1.6 1.2 -0.1
1.7 1.2 -0.1
1.8 1.2 -0.1
1.9 1.2 -0.1
-0.1 1.3 -0.1
0 1.3 -0.1
0.1 1.3 -0.1
0.2 1.3 -0.1
0.3 1.3 -0.1
0.4 1.3 -0.1
0.5 1.3 -0.1
0.6 1.3 -0.1
0.7 1.3 -0.1
0.8 1.3 -0.1
0.9 1.3 -0.1
1 1.3 -0.1
1.1 1.3 -0.1
1.2 1.3 -0.1
1.3 1.3 -0.1
1.4 1.3 -0.1
1.5 1.3 -0.1
1.6 1.3 -0.1
1.7 1.3 -0.1
1.8 1.3 -0.1
1.9 1.3 -0.1
-0.1 1.4 -0.1
0 1.4 -0.1
0.1 1.4 -0.1
0.2 1.4 -0.1
0.3 1.4 -0.1
0.4 1.4 -0.1
0.5 1.4 -0.1
0.6 1.4 -0.1
0.7 1.4 -0.1
0.8 1.4 -0.1
0.9 1.4 -0.1
1 1.4 -0.1
1.1 1.4 -0.1
1.2 1.4 -0.1
1.3 1.4 -0.1
1.4 1.4 -0.1
1.5 1.4 -0.1
1.6 1.4 -0.1
1.7 1.4 -0.1
1.8 1.4 -0.1
1.9 1.4 -0.1
-0.1 1.5 -0.1
0 1.5 -0.1
0.1 1.5 -0.1
0.2 1.5 -0.1
0.3 1.5 -0.1
0.4 1.5 -0.1
0.5 1.5 -0.1
0.6 1.5 -0.1
0.7 1.5 -0.1
0.8 1.5 -0.1
0.9 1.5 -0.1
1 1.5 -0.1
1.1 1.5 -0.1
1.2 1.5 -0.1
1.3 1.5 -0.1
1.4 1.5 -0.1
1.5 1.5 -0.1
1.6 1.5 -0.1
1.7 1.5 -0.1
1.8 1.5 -0.1
1.9 1.5 -0.1
-0.1 1.6 -0.1
0 1.6 -0.1
0.1 1.6 -0.1
0.2 1.6 -0.1
0.3 1.6 -0.1
0.4 1.6 -0.1
0.5 1.6 -0.1
0.6 1.6 -0.1
0.7 1.6 -0.1
0.8 1.6 -0.1
0.9 1.6 -0.1
1 1.6 -0.1
1.1 1.6 -0.1
1.2 1.6 -0.1
1.3 1.6 -0.1
1.4 1.6 -0.1
1.5 1.6 -0.1
1.6 1.6 -0.1
1.7 1.6 -0.1
1.8 1.6 -0.1
1.9 1.6 -0.1
-0.1 1.7 -0.1
0 1.7 -0.1
0.1 1.7 -0.1
0.2 1.7 -0.1
0.3 1.7 -0.1
0.4 1.7 -0.1
0.5 1.7 -0.1
0.6 1.7 -0.1
0.7 1.7 -0.1
0.8 1.7 -0.1
0.9 1.7 -0.1
1 1.7 -0.1
1.1 1.7 -0.1
1.2 1.7 -0.1
1.3 1.7 -0.1
1.4 1.7 -0.1
1.5 1.7 -0.1
1.6 1.7 -0.1
1.7 1.7 -0.1
1.8 1.7 -0.1
1.9 1.7 -0.1
-0.1 1.8 -0.1
0 1.8 -0.1
0.1 1.8 -0.1
0.2 1.8 -0.1
0.3 1.8 -0.1
0.4 1.8 -0.1
0.5 1.8 -0.1
0.6 1.8 -0.1
0.7 1.8 -0.1
0.8 1.8 -0.1
0.9 1.8 -0.1
1 1.8 -0.1
1.1 1.8 -0.1
1.2 1.8 -0.1
1.3 1.8 -0.1
1.4 1.8 -0.1
1.5 1.8 -0.1
1.6 1.8 -0.1
1.7 1.8 -0.1
1.8 1.8 -0.1
1.9 1.8 -0.1
-0.1 1.9 -0.1
0 1.9 -0.1
0.1 1.9 -0.1
0.2 1.9 -0.1
0.3 1.9 -0.1
0.4 1.9 -0.1
0.5 1.9 -0.1
0.6 1.9 -0.1
0.7 1.9 -0.1
0.8 1.9 -0.1
0.9 1.9 -0.1
1 1.9 -0.1
1.1 1.9 -0.1
1.2 1.9 -0.1
1.3 1.9 -0.1
1.4 1.9 -0.1
1.5 1.9 -0.1
1.6 1.9 -0.1
1.7 1.9 -0.1
1.8 1.9 -0.1
1.9 1.9 -0.1
-0.1 -0.1 0
0 -0.1 0
0.1 -0.1 0
0.2 -0.1 0
0.3 -0.1 0
0.4 -0.1 0
0.5 -0.1 0
0.6 -0.1 0
0.7 -0.1 0
0.8 -0.1 0
0.9 -0.1 0
1 -0.1 0
1.1 -0.1 0
1.2 -0.1 0
1.3 -0.1 0
1.4 -0.1 0
1.5 -0.1 0
1.6 -0.1 0
1.7 -0.1 0
1.8 -0.1 0
1.9 -0.1 0
-0.1 0 0
0 0 0
0.1 0 0
0.2 0 0
0.3 0 0
0.4 0 0
0.5 0 0
0.6 0 0
0.7 0 0
0.8 0 0
0.9 0 0
1 0 0
1.1 0 0
1.2 0 0
1.3 0 0
1.4 0 0
1.5 0 0
1.6 0 0
1.7 0 0
1.8 0 0
1.9 0 0
-0.1 0.1 0
0 0.1 0
0.1 0.1 0
0.2 0.1 0
0.3 0.1 0
0.4 0.1 0
0.5 0.1 0
0.6 0.1 0
0.7 0.1 0
0.8 0.1 0
0.9 0.1 0
1 0.1 0
1.1 0.1 0
1.2 0.1 0
1.3 0.1 0
1.4 0.1 0
1.5 0.1 0
1.6 0.1 0
1.7 0.1 0
1.8 0.1 0
1.9 0.1 0
-0.1 0.2 0
0 0.2 0
0.1 0.2 0
0.2 0.2 0
0.3 0.2 0
0.4 0.2 0
0.5 0.2 0
0.6 0.2 0
0.7 0.2 0
0.8 0.2 0
0.9 0.2 0
1 0.2 0
1.1 0.2 0
1.2 0.2 0
1.3 0.2 0
1.4 0.2 0
1.5 0.2 0
1.6 0.2 0
1.7 0.2 0
1.8 0.2 0
1.9 0.2 0
-0.1 0.3 0
0 0.3 0
0.1 0.3 0
0.2 0.3 0
0.3 0.3 0
0.4 0.3 0
0.5 0.3 0
0.6 0.3 0
0.7 0.3 0
0.8 0.3 0
0.9 0.3 0
1 0.3 0
1.1 0.3 0
1.2 0.3 0
1.3 0.3 0
1.4 0.3 0
1.5 0.3 0
1.6 0.3 0
1.7 0.3 0
1.8 0.3 0
1.9 0.3 0
-0.1 0.4 0
0 0.4 0
0.1 0.4 0
0.2 0.4 0
0.3 0.4 0
0.4 0.4 0
0.5 0.4 0
0.6 0.4 0
0.7 0.4 0
0.8 0.4 0
0.9 0.4 0
1 0.4 0
1.1 0.4 0
1.2 0.4 0
1.3 0.4 0
1.4 0.4 0
1.5 0.4 0
1.6 0.4 0
1.7 0.4 0
1.8 0.4 0
1.9 0.4 0
-0.1 0.5 0
0 0.5 0
0.1 0.5 0
0.2 0.5 0
0.3 0.5 0
0.4 0.5 0
0.5 0.5 0
0.6 0.5 0
0.7 0.5 0
0.8 0.5 0
0.9 0.5 0
1 0.5 0
1.1 0.5 0
1.2 0.5 0
1.3 0.5 0
1.4 0.5 0
1.5 0.5 0
1.6 0.5 0
1.7 0.5 0
1.8 0.5 0
1.9 0.5 0
-0.1 0.6 0
0 0.6 0
0.1 0.6 0
0.2 0.6 0
0.3 0.6 0
0.4 0.6 0
0.5 0.6 0
0.6 0.6 0
0.7 0.6 0
0.8 0.6 0
0.9 0.6 0
1 0.6 0
1.1 0.6 0
1.2 0.6 0
1.3 0.6 0
1.4 0.6 0
1.5 0.6 0
1.6 0.6 0
1.7 0.6 0
1.8 0.6 0
1.9 0.6 0
-0.1 0.7 0
0 0.7 0
0.1 0.7 0
0.2 0.7 0
0.3 0.7 0
0.4 0.7 0
0.5 0.7 0
0.6 0.7 0
0.7 0.7 0
0.8 0.7 0
0.9 0.7 0
1 0.7 0
1.1 0.7 0
1.2 0.7 0
1.3 0.7 0
1.4 0.7 0
1.5 0.7 0
1.6 0.7 0
1.7 0.7 0
1.8 0.7 0
1.9 0.7 0
-0.1 0.8 0
0 0.8 0
0.1 0.8 0
0.2 0.8 0
0.3 0.8 0
0.4 0.8 0
0.5 0.8 0
0.6 0.8 0
0.7 0.8 0
0.8 0.8 0
0.9 0.8 0
1 0.8 0
1.1 0.8 0
1.2 0.8 0
1.3 0.8 0
1.4 0.8 0
1.5 0.8 0
1.6 0.8 0
1.7 0.8 0
1.8 0.8 0
1.9 0.8 0
-0.1 0.9 0
0 0.9 0
0.1 0.9 0
0.2 0.9 0
0.3 0.9 0
0.4 0.9 0
0.5 0.9 0
0.6 0.9 0
0.7 0.9 0
0.8 0.9 0
0.9 0.9 0
1 0.9 0
1.1 0.9 0
1.2 0.9 0
1.3 0.9 0
1.4 0.9 0
1.5 0.9 0
1.6 0.9 0
1.7 0.9 0
1.8 0.9 0
1.9 0.9 0
-0.1 1 0
0 1 0
0.1 1 0
0.2 1 0
0.3 1 0
0.4 1 0
0.5 1 0
0.6 1 0
0.7 1 0
0.8 1 0
0.9 1 0
1 1 0
1.1 1 0
1.2 1 0
1.3 1 0
1.4 1 0
1.5 1 0
1.6 1 0
1.7 1 0
1.8 1 0
1.9 1 0
-0.1 1.1 0
0 1.1 0
0.1 1.1 0
0.2 1.1 0
0.3 1.1 0
0.4 1.1 0
0.5 1.1 0
0.6 1.1 0
0.7 1.1 0
0.8 1.1 0
0.9 1.1 0
1 1.1 0
1.1 1.1 0
1.2 1.1 0
1.3 1.1 0
1.4 1.1 0
1.5 1.1 0
1.6 1.1 0
1.7 1.1 0
1.8 1.1 0
1.9 1.1 0
-0.1 1.2 0
0 1.2 0
0.1 1.2 0
0.2 1.2 0
0.3 1.2 0
0.4 1.2 0
0.5 1.2 0
0.6 1.2 0
0.7 1.2 0
0.8 1.2 0
0.9 1.2 0
1 1.2 0
1.1 1.2 0
1.2 1.2 0
1.3 1.2 0
1.4 1.2 0
1.5 1.2 0
1.6 1.2 0
1.7 1.2 0
1.8 1.2 0
1.9 1.2 0
-0.1 1.3 0
0 1.3 0
0.1 1.3 0
0.2 1.3 0
0.3 1.3 0
0.4 1.3 0
0.5 1.3 0
0.6 1.3 0
0.7 1.3 0
0.8 1.3 0
0.9 1.3 0
1 1.3 0
1.1 1.3 0
1.2 1.3 0
1.3 1.3 0
1.4 1.3 0
1.5 1.3 0
1.6 1.3 0
1.7 1.3 0
1.8 1.3 0
1.9 1.3 0
-0.1 1.4 0
0 1.4 0
0.1 1.4 0
0.2 1.4 0
0.3 1.4 0
0.4 1.4 0
0.5 1.4 0
0.6 1.4 0
0.7 1.4 0
0.8 1.4 0
0.9 1.4 0
1 1.4 0
1.1 1.4 0
1.2 1.4 0
1.3 1.4 0
1.4 1.4 0
1.5 1.4 0
1.6 1.4 0
1.7 1.4 0
1.8 1.4 0
1.9 1.4 0
-0.1 1.5 0
0 1.5 0
0.1 1.5 0
0.2 1.5 0
0.3 1.5 0
0.4 1.5 0
0.5 1.5 0
0.6 1.5 0
0.7 1.5 0
0.8 1.5 0
0.9 1.5 0
1 1.5 0
1.1 1.5 0
1.2 1.5 0
1.3 1.5 0
1.4 1.5 0
1.5 1.5 0
1.6 1.5 0
1.7 1.5 0
1.8 1.5 0
1.9 1.5 0
-0.1 1.6 0
0 1.6 0
0.1 1.6 0
0.2 1.6 0
0.3 1.6 0
0.4 1.6 0
0.5 1.6 0
0.6 1.6 0
0.7 1.6 0
0.8 1.6 0
0.9 1.6 0
1 1.6 0
1.1 1.6 0
1.2 1.6 0
1.3 1.6 0
1.4 1.6 0
1.5 1.6 0
1.6 1.6 0
1.7 1.6 0
1.8 1.6 0
1.9 1.6 0
-0.1 1.7 0
0 1.7 0
0.1 1.7 0
0.2 1.7 0
0.3 1.7 0
0.4 1.7 0
0.5 1.7 0
0.6 1.7 0
0.7 1.7 0
0.8 1.7 0
0.9 1.7 0
1 1.7 0
1.1 1.7 0
1.2 1.7 0
1.3 1.7 0
1.4 1.7 0
1.5 1.7 0
1.6 1.7 0
1.7 1.7 0
1.8 1.7 0
1.9 1.7 0
-0.1 1.8 0
0 1.8 0
0.1 1.8 0
0.2 1.8 0
0.3 1.8 0
0.4 1.8 0
0.5 1.8 0
0.6 1.8 0
0.7 1.8 0
0.8 1.8 0
0.9 1.8 0
1 1.8 0
1.1 1.8 0
1.2 1.8 0
1.3 1.8 0
1.4 1.8 0
1.5 1.8 0
1.6 1.8 0
1.7 1.8 0
1.8 1.8 0
1.9 1.8 0
-0.1 1.9 0
0 1.9 0
0.1 1.9 0
0.2 1.9 0
0.3 1.9 0
0.4 1.9 0
0.5 1.9 0
0.6 1.9 0
0.7 1.9 0
0.8 1.9 0
0.9 1.9 0
1 1.9 0
1.1 1.9 0
1.2 1.9 0
1.3 1.9 0
1.4 1.9 0
1.5 1.9 0
1.6 1.9 0
1.7 1.9 0
1.8 1.9 0
[...]
CELL_DATA 4000
VECTORS velocity double 
1.54354e-06 0.000322909 -0.000324452
-1.89849e-06 0.000379829 -0.000386715
-4.37219e-06 0.000384486 -0.000392814
-5.51227e-06 0.000385717 -0.000394745
-5.49618e-06 0.000386323 -0.000395826
-4.55421e-06 0.000386662 -0.000396505
-2.90164e-06 0.000386865 -0.000396944
-7.29536e-07 0.000386991 -0.000397231
1.80107e-06 0.000387071 -0.000397408
4.55102e-06 0.000387118 -0.000397495
7.39532e-06 0.000387145 -0.000397501
1.02093e-05 0.000387145 -0.000397421
1.28603e-05 0.000387101 -0.000397243
1.52231e-05 0.000386991 -0.000396937
1.71717e-05 0.000386753 -0.000396453
1.86082e-05 0.000386296 -0.000395695
1.9461e-05 0.000385437 -0.000394493
1.9719e-05 0.000383744 -0.000392495
1.95988e-05 0.00037829 -0.000386955
9.79938e-06 0.000319604 -0.000327685
4.95917e-06 0.000864959 -0.000396654
2.85131e-06 0.00103239 -0.000476218
-9.7439e-08 0.00104555 -0.000483334
-2.1684e-06 0.00104842 -0.000485546
-3.00237e-06 0.0010498 -0.000486796
-2.66949e-06 0.00105055 -0.000487581
-1.36452e-06 0.00105099 -0.000488092
6.89773e-07 0.00105126 -0.000488425
3.28121e-06 0.00105141 -0.000488633
6.22817e-06 0.00105151 -0.000488733
9.35192e-06 0.00105155 -0.000488741
1.24749e-05 0.00105154 -0.000488651
1.54097e-05 0.00105144 -0.00048845
1.79598e-05 0.00105118 -0.0004881
1.99213e-05 0.00105067 -0.000487539
2.10451e-05 0.00104966 -0.00048666
2.09637e-05 0.00104777 -0.000485269
1.91238e-05 0.00104407 -0.000482972
1.58325e-05 0.00102987 -0.000476359
7.91624e-06 0.000861647 -0.000399581
1.17692e-05 0.00154001 -0.000424874
1.10412e-05 0.00185809 -0.000509226
6.95122e-06 0.00188179 -0.000516746
3.22541e-06 0.00188591 -0.000519144
8.95581e-07 0.00188783 -0.000520504
5.70327e-08 0.00188887 -0.000521359
5.02292e-07 0.00188945 -0.000521916
1.94963e-06 0.00188978 -0.000522279
4.12998e-06 0.00188997 -0.000522501
6.79178e-06 0.00189008 -0.000522611
9.70521e-06 0.00189013 -0.000522623
1.26412e-05 0.00189011 -0.000522529
1.53575e-05 0.00188997 -0.00052231
1.75931e-05 0.00188964 -0.000521926
1.90192e-05 0.00188894 -0.000521312
1.91867e-05 0.00188755 -0.00052035
1.73944e-05 0.00188496 -0.000518829
1.25239e-05 0.00187985 -0.000516328
5.16445e-06 0.00185521 -0.000509284
2.58223e-06 0.00153724 -0.000427624
1.78941e-05 0.0023137 -0.000462992
1.86857e-05 0.00281687 -0.000554088
1.36866e-05 0.0028528 -0.0005622
8.44482e-06 0.00285762 -0.000564839
4.6826e-06 0.00285973 -0.000566349
2.69054e-06 0.00286083 -0.000567296
2.28148e-06 0.0028614 -0.000567909
3.12812e-06 0.00286169 -0.000568309
4.89537e-06 0.00286185 -0.000568555
7.27459e-06 0.00286193 -0.000568677
9.97952e-06 0.00286197 -0.000568692
1.27293e-05 0.00286196 -0.00056859
1.52235e-05 0.00286186 -0.000568347
1.71122e-05 0.00286155 -0.000567919
1.79436e-05 0.00286083 -0.000567237
1.71088e-05 0.00285933 -0.000566167
1.36396e-05 0.00285649 -0.000564487
6.06546e-06 0.00285069 -0.000561726
-4.35497e-06 0.002814 -0.00055408
-2.17749e-06 0.00231145 -0.000465688
2.28191e-05 0.0031834 -0.000514607
2.49834e-05 0.00390426 -0.000615092
1.93019e-05 0.00395437 -0.000624013
1.27995e-05 0.00395946 -0.000626948
7.80884e-06 0.00396144 -0.000628634
4.82146e-06 0.00396238 -0.00062969
3.67971e-06 0.00396279 -0.000630373
4.02281e-06 0.00396293 -0.000630815
5.46212e-06 0.00396297 -0.000631088
7.63584e-06 0.00396298 -0.000631227
1.02078e-05 0.00396301 -0.000631245
1.28441e-05 0.00396304 -0.000631131
1.51837e-05 0.00396304 -0.000630861
1.67939e-05 0.00396286 -0.000630384
1.71007e-05 0.00396229 -0.000629634
1.53524e-05 0.00396094 -0.000628449
1.04205e-05 0.00395827 -0.000626556
6.40863e-07 0.00395229 -0.000623451
-1.20356e-05 0.00390159 -0.000614992
-6.01782e-06 0.00318154 -0.000517282
2.6926e-05 0.00416318 -0.000580796
3.02061e-05 0.00513537 -0.000693567
2.38896e-05 0.00520193 -0.000703539
1.62563e-05 0.00520705 -0.000706832
1.01804e-05 0.00520863 -0.000708718
6.33327e-06 0.00520922 -0.000709895
4.58129e-06 0.00520933 -0.000710654
4.53152e-06 0.00520922 -0.000711145
5.74998e-06 0.00520908 -0.000711448
7.82661e-06 0.00520898 -0.000711602
1.03778e-05 0.00520899 -0.000711621
1.30131e-05 0.0052091 -0.000711498
1.5302e-05 0.00520924 -0.000711212
1.67302e-05 0.0052093 -0.000710692
1.66317e-05 0.00520905 -0.000709858
1.4144e-05 0.0052081 -0.000708527
7.97334e-06 0.00520591 -0.000706392
-3.72361e-06 0.00519999 -0.000702892
-1.83722e-05 0.00513292 -0.000693365
-9.1861e-06 0.00416157 -0.000583468
3.06659e-05 0.00527667 -0.000663216
3.47995e-05 0.00653737 -0.00079159
2.77325e-05 0.00662302 -0.000802893
1.89567e-05 0.00662805 -0.000806606
1.18393e-05 0.00662904 -0.000808722
7.20652e-06 0.00662911 -0.000810032
4.93803e-06 0.00662877 -0.000810869
4.60155e-06 0.00662831 -0.000811409
5.71644e-06 0.00662791 -0.000811743
7.82247e-06 0.00662768 -0.000811913
1.04823e-05 0.00662766 -0.000811936
1.3245e-05 0.00662787 -0.000811809
1.56198e-05 0.00662824 -0.000811511
1.70219e-05 0.00662864 -0.000810953
1.66839e-05 0.00662886 -0.000810036
1.36049e-05 0.0066285 -0.000808546
6.30591e-06 0.00662699 -0.000806138
-7.23464e-06 0.00662122 -0.000802158
-2.39221e-05 0.0065351 -0.000791273
-1.19611e-05 0.00527523 -0.000665888
3.43985e-05 0.00655463 -0.000764546
3.91297e-05 0.00814699 -0.000912481
3.10709e-05 0.00825472 -0.000925456
2.10117e-05 0.00825961 -0.000929667
1.2808e-05 0.00825981 -0.000932037
7.41415e-06 0.00825918 -0.000933488
4.69951e-06 0.00825825 -0.000934403
4.18169e-06 0.00825734 -0.00093499
5.32053e-06 0.00825662 -0.00093535
7.59706e-06 0.00825621 -0.00093554
1.0523e-05 0.00825616 -0.000935571
1.35786e-05 0.00825649 -0.000935449
1.62061e-05 0.00825714 -0.000935147
1.77486e-05 0.008258 -0.000934559
1.7336e-05 0.00825884 -0.000933553
1.37989e-05 0.00825928 -0.000931891
5.43303e-06 0.00825864 -0.000929176
-1.00364e-05 0.00825306 -0.00092461
-2.90718e-05 0.00814485 -0.000912014
-1.45359e-05 0.0065533 -0.000767221
3.83561e-05 0.00803526 -0.000888935
4.34138e-05 0.0100109 -0.00106136
3.40121e-05 0.0101442 -0.00107642
2.24245e-05 0.0101489 -0.00108122
1.30233e-05 0.010148 -0.00108387
6.864e-06 0.0101465 -0.00108546
3.77469e-06 0.0101448 -0.00108645
3.19733e-06 0.0101433 -0.00108707
4.51317e-06 0.0101422 -0.00108745
7.12453e-06 0.0101415 -0.00108767
1.04883e-05 0.0101414 -0.00108772
1.40213e-05 0.0101419 -0.00108761
1.71098e-05 0.0101429 -0.0010873
1.90137e-05 0.0101444 -0.00108668
1.87312e-05 0.0101461 -0.0010856
1.48853e-05 0.0101475 -0.00108378
5.48246e-06 0.010148 -0.00108072
-1.21444e-05 0.0101427 -0.00107544
-3.40736e-05 0.0100089 -0.00106068
-1.70368e-05 0.00803397 -0.000891628
4.26716e-05 0.00976671 -0.00104276
4.77113e-05 0.012189 -0.00124609
3.64832e-05 0.0123517 -0.00126378
2.30354e-05 0.0123559 -0.00126926
1.22876e-05 0.0123537 -0.00127221
5.36236e-06 0.012351 -0.00127392
1.99721e-06 0.0123483 -0.00127496
1.51479e-06 0.0123461 -0.00127561
3.1906e-06 0.0123444 -0.00127599
6.33593e-06 0.0123435 -0.00127622
1.03599e-05 0.0123434 -0.00127629
1.46222e-05 0.012344 -0.00127621
1.84419e-05 0.0123455 -0.00127592
2.09817e-05 0.0123477 -0.00127531
2.1088e-05 0.0123505 -0.0012742
1.71319e-05 0.0123533 -0.00127222
6.71944e-06 0.0123553 -0.00126877
-1.34061e-05 0.0123505 -0.00126266
-3.90383e-05 0.0121871 -0.00124517
-1.95191e-05 0.0097654 -0.00104548
4.73637e-05 0.0118122 -0.00123607
5.1868e-05 0.0147598 -0.00147903
3.81616e-05 0.0149568 -0.00150006
2.24365e-05 0.0149601 -0.00150634
1.01921e-05 0.0149559 -0.00150957
2.54525e-06 0.0149515 -0.00151138
-9.33789e-07 0.0149475 -0.00151244
-1.09642e-06 0.0149443 -0.00151308
1.20068e-06 0.0149421 -0.00151344
5.15746e-06 0.0149408 -0.00151369
1.01208e-05 0.0149406 -0.00151379
1.54148e-05 0.0149415 -0.00151375
2.03028e-05 0.0149435 -0.00151353
2.38492e-05 0.0149467 -0.00151297
2.47263e-05 0.0149509 -0.00151186
2.09772e-05 0.0149556 -0.00150976
9.642e-06 0.0149598 -0.00150591
-1.33949e-05 0.014956 -0.0014988
-4.37664e-05 0.0147582 -0.00147784
-2.18832e-05 0.0118109 -0.00123879
5.22681e-05 0.0142591 -0.00148537
5.53842e-05 0.0178324 -0.00178047
3.83142e-05 0.0180691 -0.00180582
1.98322e-05 0.0180704 -0.001813
6.00244e-06 0.0180634 -0.00181647
-2.19675e-06 0.0180567 -0.0018183
-5.48929e-06 0.018051 -0.0018193
-4.98296e-06 0.0180466 -0.0018199
-1.70739e-06 0.0180435 -0.00182023
3.43103e-06 0.0180418 -0.00182045
9.70783e-06 0.0180415 -0.00182058
1.64294e-05 0.0180427 -0.00182061
2.2836e-05 0.0180454 -0.00182049
2.79115e-05 0.0180498 -0.00182006
3.01299e-05 0.0180559 -0.00181904
2.71185e-05 0.0180632 -0.00181691
1.51314e-05 0.0180706 -0.0018127
-1.12136e-05 0.0180689 -0.00180442
-4.7606e-05 0.0178312 -0.0017789
-2.3803e-05 0.0142578 -0.00148807
5.68966e-05 0.0172359 -0.00181912
5.71513e-05 0.0215659 -0.0021853
3.5516e-05 0.0218487 -0.00221636
1.38088e-05 0.0218463 -0.00222447
-1.50335e-06 0.0218351 -0.00222806
-9.83284e-06 0.0218252 -0.00222977
-1.23936e-05 0.0218172 -0.0022306
-1.0647e-05 0.0218112 -0.00223106
-5.86639e-06 0.0218071 -0.00223133
9.45463e-07 0.0218048 -0.00223151
9.02598e-06 0.0218044 -0.00223166
1.76941e-05 0.0218058 -0.00223179
2.62161e-05 0.0218094 -0.00223183
3.35428e-05 0.0218154 -0.00223163
3.79604e-05 0.021824 -0.00223087
3.66023e-05 0.0218349 -0.00222889
2.46417e-05 0.0218471 -0.00222444
-5.19668e-06 0.0218495 -0.00221487
-4.92242e-05 0.0215655 -0.00218327
-2.46121e-05 0.0172345 -0.00182181
6.00468e-05 0.0209447 -0.00228947
5.4886e-05 0.0262087 -0.00275721
2.71158e-05 0.0265448 -0.00279594
1.91549e-06 0.0265359 -0.00280488
-1.432e-05 0.0265182 -0.00280829
-2.18563e-05 0.0265038 -0.00280963
-2.27091e-05 0.0264929 -0.00281015
-1.88132e-05 0.0264849 -0.00281032
-1.17283e-05 0.0264796 -0.00281041
-2.55925e-06 0.0264767 -0.00281052
7.94604e-06 0.026476 -0.0028107
1.92011e-05 0.0264778 -0.00281096
3.05982e-05 0.0264824 -0.00281125
4.11602e-05 0.0264902 -0.00281143
4.9081e-05 0.026502 -0.00281116
5.0958e-05 0.026518 -0.00280966
4.05189e-05 0.0265375 -0.00280531
7.61355e-06 0.0265473 -0.00279447
-4.59526e-05 0.0262098 -0.00275464
-2.29763e-05 0.0209434 -0.00229216
5.89073e-05 0.0257305 -0.00299921
4.38713e-05 0.0321795 -0.00362119
8.10879e-06 0.0325769 -0.00367039
-2.01393e-05 0.032556 -0.0036796
-3.57166e-05 0.0325288 -0.0036822
-4.05588e-05 0.0325084 -0.00368268
-3.79252e-05 0.0324936 -0.00368258
-3.04267e-05 0.0324834 -0.00368234
-1.98947e-05 0.0324767 -0.00368215
-7.46062e-06 0.032473 -0.00368213
6.24309e-06 0.0324721 -0.00368231
2.08556e-05 0.0324742 -0.00368273
3.60662e-05 0.0324797 -0.00368336
5.11814e-05 0.0324897 -0.00368412
6.45497e-05 0.0325053 -0.0036847
7.23495e-05 0.0325281 -0.00368426
6.65304e-05 0.0325586 -0.00368077
3.25486e-05 0.0325818 -0.00366916
-3.23363e-05 0.0321833 -0.003618
-1.61681e-05 0.0257292 -0.00300186
4.6705e-05 0.0322375 -0.00416971
1.39333e-05 0.0402491 -0.00504443
-3.13476e-05 0.0407149 -0.00510787
-6.01145e-05 0.0406733 -0.00511568
-7.11383e-05 0.0406323 -0.00511623
-6.95426e-05 0.0406041 -0.00511513
-6.03087e-05 0.0405849 -0.00511393
-4.68408e-05 0.0405722 -0.00511298
-3.11535e-05 0.040564 -0.00511236
-1.42285e-05 0.0405596 -0.00511211
3.61431e-06 0.0405585 -0.00511226
2.24579e-05 0.0405607 -0.00511285
4.25502e-05 0.0405671 -0.00511392
6.38703e-05 0.040579 -0.00511551
8.54411e-05 0.0405989 -0.00511746
0.000103604 0.0406302 -0.00511904
0.000108604 0.0406766 -0.00511799
7.94752e-05 0.0407235 -0.00510739
3.43094e-06 0.0402578 -0.00504082
1.71547e-06 0.0322362 -0.00417222
5.95092e-06 0.0417997 -0.00632357
-5.82966e-05 0.0519869 -0.00765213
-0.000111633 0.0525242 -0.0077338
-0.000132759 0.0524479 -0.00773596
-0.000130142 0.0523881 -0.00773185
-0.000114549 0.052351 -0.00772796
-9.31649e-05 0.0523274 -0.00772503
-6.99019e-05 0.0523124 -0.00772302
-4.65207e-05 0.0523031 -0.00772176
-2.34515e-05 0.0522981 -0.00772117
-3.61335e-07 0.0522967 -0.00772122
2.36091e-05 0.0522989 -0.00772197
4.96347e-05 0.0523057 -0.00772355
7.89757e-05 0.052319 -0.0077262
0.000112337 0.0523426 -0.00773013
0.000147842 0.0523831 -0.0077352
0.0001757 0.0524505 -0.00773961
0.000167137 0.0525373 -0.007735
8.84081e-05 0.052004 -0.00764902
4.42041e-05 0.0417986 -0.0063258
-0.000112702 0.0573365 -0.010652
-0.000230911 0.0707396 -0.0128381
-0.000277764 0.07134 -0.0129381
-0.000267532 0.0712116 -0.0129249
-0.000230501 0.0711315 -0.0129119
-0.000185727 0.0710869 -0.0129034
-0.000142026 0.0710606 -0.0128979
-0.000102517 0.0710446 -0.0128943
-6.74992e-05 0.071035 -0.0128922
-3.59697e-05 0.0710298 -0.0128911
-6.29957e-06 0.0710282 -0.0128909
2.36003e-05 0.0710301 -0.0128918
5.63144e-05 0.0710365 -0.0128939
9.51481e-05 0.0710496 -0.0128977
0.000144137 0.0710745 -0.0129042
0.000206785 0.0711213 -0.0129145
0.000279732 0.0712108 -0.0129295
0.000331944 0.0713568 -0.0129429
0.000290457 0.0707692 -0.012839
0.000145229 0.0573367 -0.0106541
-0.000467425 0.0820276 -0.0164643
-0.000662706 0.0993504 -0.0192893
-0.000637316 0.0999559 -0.0193456
-0.000528205 0.0997804 -0.0192978
-0.000407886 0.0996932 -0.0192704
-0.000302345 0.0996502 -0.0192553
-0.000217024 0.0996264 -0.0192463
-0.000149879 0.0996125 -0.0192408
-9.67398e-05 0.0996043 -0.0192376
-5.32249e-05 0.0996 -0.0192358
-1.52359e-05 0.0995986 -0.0192354
2.12369e-05 0.0995999 -0.0192362
6.06846e-05 0.0996048 -0.0192387
0.000109114 0.0996152 -0.0192435
0.000175728 0.0996361 -0.0192526
0.000275392 0.099679 -0.0192695
0.000428881 0.099774 -0.0193012
0.000642031 0.0999713 -0.0193557
0.000801748 0.0993868 -0.0193027
0.000400874 0.0820331 -0.0164685
-0.00162473 0.0410138 0.0549666
-0.00171025 0.0496752 0.0632302
-0.00134067 0.0499779 0.0638517
-0.000962971 0.0498902 0.0639599
-0.000668196 0.0498466 0.0639998
-0.000455734 0.0498251 0.0640199
-0.000306615 0.0498132 0.0640314
-0.000202045 0.0498062 0.0640384
-0.000127238 0.0498022 0.0640425
-7.12977e-05 0.0498 0.0640448
-2.62215e-05 0.0497993 0.0640455
1.44296e-05 0.0498 0.0640449
5.68873e-05 0.0498024 0.0640426
0.000109136 0.0498076 0.0640376
0.000184641 0.049818 0.0640277
0.000311613 0.0498395 0.0640073
0.00056021 0.049887 0.0639615
0.00111919 0.0499856 0.0638363
0.00218518 0.0496934 0.0631938
0.00109259 0.0410166 0.0549611
-5.29093e-06 0.00035964 -0.000852126
-9.93493e-06 0.000428295 -0.00102453
-1.14158e-05 0.000433402 -0.00103987
-1.10936e-05 0.000434638 -0.00104412
-9.66649e-06 0.000435238 -0.00104653
-7.48805e-06 0.000435569 -0.00104806
-4.77422e-06 0.000435764 -0.00104907
-1.6754e-06 0.000435883 -0.00104974
1.69488e-06 0.000435958 -0.00105015
5.22945e-06 0.000436001 -0.00105035
8.83306e-06 0.000436026 -0.00105037
1.23984e-05 0.000436024 -0.00105018
1.58069e-05 0.000435978 -0.00104976
1.89598e-05 0.00043587 -0.00104905
2.17904e-05 0.000435642 -0.0010479
2.42982e-05 0.0004352 -0.00104615
2.66018e-05 0.000434355 -0.00104344
2.90464e-05 0.000432653 -0.00103898
3.10893e-05 0.000426788 -0.00102435
1.55446e-05 0.000356629 -0.000855283
-2.1551e-06 0.000985731 -0.00105726
-5.63671e-06 0.00118961 -0.00128152
-7.5972e-06 0.00120419 -0.00129989
-8.1352e-06 0.00120706 -0.00130482
-7.46668e-06 0.00120842 -0.00130764
-5.80355e-06 0.00120915 -0.00130944
-3.34405e-06 0.00120957 -0.00131063
-2.70259e-07 0.00120982 -0.00131141
3.25419e-06 0.00120997 -0.0013119
7.08122e-06 0.00121006 -0.00131215
1.10613e-05 0.00121009 -0.00131217
1.50287e-05 0.00121007 -0.00131195
1.88177e-05 0.00120997 -0.00131146
2.22657e-05 0.00120973 -0.00131062
2.52201e-05 0.00120924 -0.00130928
2.75285e-05 0.00120826 -0.00130723
2.90115e-05 0.00120638 -0.00130407
2.95173e-05 0.00120265 -0.00129889
2.86002e-05 0.00118704 -0.00128117
1.43001e-05 0.00098255 -0.00106031
5.18138e-06 0.00178078 -0.00114091
2.99215e-06 0.00217094 -0.00138077
-2.41627e-07 0.00219735 -0.00140047
-2.53124e-06 0.00220143 -0.00140587
-3.43105e-06 0.0022033 -0.00140896
-2.99394e-06 0.0022043 -0.00141093
-1.42984e-06 0.00220484 -0.00141223
1.016e-06 0.00220514 -0.00141309
4.1147e-06 0.00220531 -0.00141362
7.64794e-06 0.0022054 -0.00141389
1.14127e-05 0.00220544 -0.00141391
1.5196e-05 0.00220541 -0.00141368
1.87783e-05 0.00220529 -0.00141315
2.19232e-05 0.00220499 -0.00141222
2.43476e-05 0.00220432 -0.00141076
2.56924e-05 0.00220297 -0.00140851
2.54343e-05 0.00220042 -0.00140504
2.27812e-05 0.00219533 -0.00139932
1.73253e-05 0.00216794 -0.00138023
8.66266e-06 0.001778 -0.0011438
1.1488e-05 0.00270468 -0.00124868
1.07133e-05 0.00332505 -0.00150906
6.50491e-06 0.00336529 -0.00153054
2.67195e-06 0.00336997 -0.00153653
3.31684e-07 0.00337198 -0.00153996
-3.83846e-07 0.00337299 -0.00154215
3.25084e-07 0.0033735 -0.00154359
2.17059e-06 0.00337375 -0.00154453
4.86021e-06 0.00337386 -0.00154512
8.11452e-06 0.00337392 -0.00154542
1.16769e-05 0.00337394 -0.00154545
1.52869e-05 0.00337393 -0.0015452
1.86681e-05 0.00337385 -0.0015446
2.14835e-05 0.00337358 -0.00154359
2.33299e-05 0.00337292 -0.00154197
2.36844e-05 0.00337149 -0.00153946
2.17642e-05 0.00336875 -0.00153558
1.63763e-05 0.00336311 -0.00152921
7.60618e-06 0.00332208 -0.00150833
3.80309e-06 0.00270235 -0.00125151
1.61981e-05 0.00375254 -0.00139036
1.66457e-05 0.00464444 -0.00167832
1.17589e-05 0.00470072 -0.00170208
6.72809e-06 0.00470551 -0.00170876
3.22758e-06 0.0047073 -0.0017126
1.57505e-06 0.00470811 -0.00171504
1.59754e-06 0.00470842 -0.00171664
2.9717e-06 0.0047085 -0.00171769
5.35778e-06 0.00470848 -0.00171835
8.42902e-06 0.00470846 -0.00171868
1.18813e-05 0.00470847 -0.00171871
1.54047e-05 0.0047085 -0.00171844
1.86613e-05 0.00470852 -0.00171779
2.12186e-05 0.00470839 -0.00171666
2.25735e-05 0.0047079 -0.00171487
2.20865e-05 0.00470669 -0.00171207
1.87997e-05 0.00470423 -0.0017077
1.13044e-05 0.00469859 -0.00170054
2.67411e-07 0.00464169 -0.00167736
1.33706e-07 0.00375056 -0.00139317
1.974e-05 0.00493849 -0.00156929
2.1089e-05 0.00614401 -0.00189274
1.56261e-05 0.00621892 -0.00191937
9.60828e-06 0.00622353 -0.00192687
5.1653e-06 0.00622482 -0.00193117
2.76772e-06 0.00622523 -0.00193388
2.26663e-06 0.0062252 -0.00193566
3.31346e-06 0.006225 -0.00193682
5.5283e-06 0.00622478 -0.00193754
8.54503e-06 0.00622464 -0.00193791
1.20132e-05 0.00622462 -0.00193795
1.55628e-05 0.00622473 -0.00193766
1.88049e-05 0.0062249 -0.00193696
2.12331e-05 0.00622502 -0.00193574
2.22554e-05 0.00622489 -0.00193376
2.11298e-05 0.00622415 -0.00193062
1.67516e-05 0.00622228 -0.0019257
7.59316e-06 0.00621694 -0.00191763
-5.21113e-06 0.00614153 -0.00189155
-2.60556e-06 0.00493675 -0.00157211
2.25811e-05 0.00628807 -0.00179034
2.45014e-05 0.00785323 -0.00215846
1.84003e-05 0.00794969 -0.00218865
1.14566e-05 0.00795396 -0.00219711
6.1859e-06 0.00795455 -0.00220191
3.17717e-06 0.00795437 -0.00220493
2.28961e-06 0.00795386 -0.00220688
3.14696e-06 0.00795328 -0.00220815
5.33059e-06 0.00795279 -0.00220893
8.43478e-06 0.00795249 -0.00220934
1.20598e-05 0.00795244 -0.00220939
1.5775e-05 0.00795264 -0.00220911
1.91488e-05 0.00795304 -0.00220838
2.16174e-05 0.00795352 -0.00220706
2.24989e-05 0.00795389 -0.00220487
2.09228e-05 0.00795382 -0.00220138
1.56475e-05 0.00795277 -0.00219586
5.03911e-06 0.00794786 -0.0021867
-9.39282e-06 0.00785098 -0.002157
-4.69641e-06 0.00628651 -0.00179318
2.50696e-05 0.00783539 -0.00206075
2.72213e-05 0.00981304 -0.00248454
2.02976e-05 0.00993434 -0.00251917
1.23759e-05 0.0099382 -0.00252873
6.30927e-06 0.00993788 -0.00253409
2.776e-06 0.00993693 -0.0025374
1.62117e-06 0.0099358 -0.00253952
2.42758e-06 0.00993474 -0.00254089
4.72758e-06 0.00993392 -0.00254174
8.07506e-06 0.00993343 -0.00254219
1.20218e-05 0.00993333 -0.00254227
1.60762e-05 0.00993364 -0.00254199
1.9759e-05 0.00993433 -0.00254125
2.24549e-05 0.00993528 -0.00253984
2.33844e-05 0.00993631 -0.00253747
2.15322e-05 0.00993709 -0.00253362
1.55157e-05 0.00993707 -0.00252742
3.52582e-06 0.00993268 -0.00251696
-1.2659e-05 0.00981099 -0.00248275
-6.32951e-06 0.00783395 -0.00206364
2.73843e-05 0.00962305 -0.00239113
2.94024e-05 0.0120758 -0.00288428
2.13726e-05 0.0122257 -0.00292439
1.23358e-05 0.0122291 -0.00293523
5.46063e-06 0.0122276 -0.00294118
1.47297e-06 0.0122257 -0.00294478
1.76389e-07 0.0122238 -0.00294704
1.09066e-06 0.0122221 -0.00294848
3.67515e-06 0.0122209 -0.00294938
7.43726e-06 0.0122202 -0.00294987
1.18843e-05 0.01222 -0.00294999
1.6483e-05 0.0122205 -0.00294973
2.06928e-05 0.0122215 -0.00294899
2.38342e-05 0.012223 -0.00294754
2.50283e-05 0.0122249 -0.00294503