# vtk DataFile Version 2.0 
Visualization 
ASCII 
DATASET STRUCTURED_GRID 
DIMENSIONS 21 21 11
POINTS 4851 float
-0.1 -0.1 -0.1
0 -0.1 -0.1
0.1 -0.1 -0.1
0.2 -0.1 -0.1
0.3 -0.1 -0.1
0.4 -0.1 -0.1
0.5 -0.1 -0.1
0.6 -0.1 -0.1
0.7 -0.1 -0.1
0.8 -0.1 -0.1
0.9 -0.1 -0.1
1 -0.1 -0.1
1.1 -0.1 -0.1
1.2 -0.1 -0.1
1.3 -0.1 -0.1
1.4 -0.1 -0.1
1.5 -0.1 -0.1
1.6 -0.1 -0.1
1.7 -0.1 -0.1
1.8 -0.1 -0.1
1.9 -0.1 -0.1
-0.1 0 -0.1
0 0 -0.1
0.1 0 -0.1
0.2 0 -0.1
0.3 0 -0.1
0.4 0 -0.1
0.5 0 -0.1
0.6 0 -0.1
0.7 0 -0.1
0.8 0 -0.1
0.9 0 -0.1
1 0 -0.1
1.1 0 -0.1
1.2 0 -0.1
1.3 0 -0.1
1.4 0 -0.1
1.5 0 -0.1
1.6 0 -0.1
1.7 0 -0.1
1.8 0 -0.1
1.9 0 -0.1
-0.1 0.1 -0.1
0 0.1 -0.1
0.1 0.1 -0.1
0.2 0.1 -0.1
0.3 0.1 -0.1
0.4 0.1 -0.1
0.5 0.1 -0.1
0.6 0.1 -0.1
0.7 0.1 -0.1
0.8 0.1 -0.1
0.9 0.1 -0.1
1 0.1 -0.1
1.1 0.1 -0.1
1.2 0.1 -0.1
1.3 0.1 -0.1
1.4 0.1 -0.1
1.5 0.1 -0.1
1.6 0.1 -0.1
1.7 0.1 -0.1
1.8 0.1 -0.1
1.9 0.1 -0.1
-0.1 0.2 -0.1
0 0.2 -0.1
0.1 0.2 -0.1
0.2 0.2 -0.1
0.3 0.2 -0.1
0.4 0.2 -0.1
0.5 0.2 -0.1
0.6 0.2 -0.1
0.7 0.2 -0.1
0.8 0.2 -0.1
0.9 0.2 -0.1
1 0.2 -0.1
1.1 0.2 -0.1
1.2 0.2 -0.1
1.3 0.2 -0.1
1.4 0.2 -0.1
1.5 0.2 -0.1
1.6 0.2 -0.1
1.7 0.2 -0.1
1.8 0.2 -0.1
1.9 0.2 -0.1
-0.1 0.3 -0.1
0 0.3 -0.1
0.1 0.3 -0.1
0.2 0.3 -0.1
0.3 0.3 -0.1
0.4 0.3 -0.1
0.5 0.3 -0.1
0.6 0.3 -0.1
0.7 0.3 -0.1
0.8 0.3 -0.1
0.9 0.3 -0.1
1 0.3 -0.1
1.1 0.3 -0.1
1.2 0.3 -0.1
1.3 0.3 -0.1
1.4 0.3 -0.1
1.5 0.3 -0.1
1.6 0.3 -0.1
1.7 0.3 -0.1
1.8 0.3 -0.1
1.9 0.3 -0.1
-0.1 0.4 -0.1
0 0.4 -0.1
0.1 0.4 -0.1
0.2 0.4 -0.1
0.3 0.4 -0.1
0.4 0.4 -0.1
0.5 0.4 -0.1
0.6 0.4 -0.1
0.7 0.4 -0.1
0.8 0.4 -0.1
0.9 0.4 -0.1
1 0.4 -0.1
1.1 0.4 -0.1
1.2 0.4 -0.1
1.3 0.4 -0.1
1.4 0.4 -0.1
1.5 0.4 -0.1
1.6 0.4 -0.1
1.7 0.4 -0.1
1.8 0.4 -0.1
1.9 0.4 -0.1
-0.1 0.5 -0.1
0 0.5 -0.1
0.1 0.5 -0.1
0.2 0.5 -0.1
0.3 0.5 -0.1
0.4 0.5 -0.1
0.5 0.5 -0.1
0.6 0.5 -0.1
0.7 0.5 -0.1
0.8 0.5 -0.1
0.9 0.5 -0.1
1 0.5 -0.1
1.1 0.5 -0.1
1.2 0.5 -0.1
1.3 0.5 -0.1
1.4 0.5 -0.1
1.5 0.5 -0.1
1.6 0.5 -0.1
1.7 0.5 -0.1
1.8 0.5 -0.1
1.9 0.5 -0.1
-0.1 0.6 -0.1
0 0.6 -0.1
0.1 0.6 -0.1
0.2 0.6 -0.1
0.3 0.6 -0.1
0.4 0.6 -0.1
0.5 0.6 -0.1
0.6 0.6 -0.1
0.7 0.6 -0.1
0.8 0.6 -0.1
0.9 0.6 -0.1
1 0.6 -0.1
1.1 0.6 -0.1
1.2 0.6 -0.1
1.3 0.6 -0.1
1.4 0.6 -0.1
1.5 0.6 -0.1
1.6 0.6 -0.1
1.7 0.6 -0.1
1.8 0.6 -0.1
1.9 0.6 -0.1
-0.1 0.7 -0.1
0 0.7 -0.1
0.1 0.7 -0.1
0.2 0.7 -0.1
0.3 0.7 -0.1
0.4 0.7 -0.1
0.5 0.7 -0.1
0.6 0.7 -0.1
0.7 0.7 -0.1
0.8 0.7 -0.1
0.9 0.7 -0.1
1 0.7 -0.1
1.1 0.7 -0.1
1.2 0.7 -0.1
1.3 0.7 -0.1
1.4 0.7 -0.1
1.5 0.7 -0.1
1.6 0.7 -0.1
1.7 0.7 -0.1
1.8 0.7 -0.1
1.9 0.7 -0.1
-0.1 0.8 -0.1
0 0.8 -0.1
0.1 0.8 -0.1
0.2 0.8 -0.1
0.3 0.8 -0.1
0.4 0.8 -0.1
0.5 0.8 -0.1
0.6 0.8 -0.1
0.7 0.8 -0.1
0.8 0.8 -0.1
0.9 0.8 -0.1
1 0.8 -0.1
1.1 0.8 -0.1
1.2 0.8 -0.1
1.3 0.8 -0.1
1.4 0.8 -0.1
1.5 0.8 -0.1
1.6 0.8 -0.1
1.7 0.8 -0.1
1.8 0.8 -0.1
1.9 0.8 -0.1
-0.1 0.9 -0.1
0 0.9 -0.1
0.1 0.9 -0.1
0.2 0.9 -0.1
0.3 0.9 -0.1
0.4 0.9 -0.1
0.5 0.9 -0.1
0.6 0.9 -0.1
0.7 0.9 -0.1
0.8 0.9 -0.1
0.9 0.9 -0.1
1 0.9 -0.1
1.1 0.9 -0.1
1.2 0.9 -0.1
1.3 0.9 -0.1
1.4 0.9 -0.1
1.5 0.9 -0.1
1.6 0.9 -0.1
1.7 0.9 -0.1
1.8 0.9 -0.1
1.9 0.9 -0.1
-0.1 1 -0.1
0 1 -0.1
0.1 1 -0.1
0.2 1 -0.1
0.3 1 -0.1
0.4 1 -0.1
0.5 1 -0.1
0.6 1 -0.1
0.7 1 -0.1
0.8 1 -0.1
0.9 1 -0.1
1 1 -0.1
1.1 1 -0.1
1.2 1 -0.1
1.3 1 -0.1
1.4 1 -0.1
1.5 1 -0.1
1.6 1 -0.1
1.7 1 -0.1
1.8 1 -0.1
1.9 1 -0.1
-0.1 1.1 -0.1
0 1.1 -0.1
0.1 1.1 -0.1
0.2 1.1 -0.1
0.3 1.1 -0.1
0.4 1.1 -0.1
0.5 1.1 -0.1
0.6 1.1 -0.1
0.7 1.1 -0.1
0.8 1.1 -0.1
0.9 1.1 -0.1
1 1.1 -0.1
1.1 1.1 -0.1
1.2 1.1 -0.1
1.3 1.1 -0.1
1.4 1.1 -0.1
1.5 1.1 -0.1
1.6 1.1 -0.1
1.7 1.1 -0.1
1.8 1.1 -0.1
1.9 1.1 -0.1
-0.1 1.2 -0.1
0 1.2 -0.1
0.1 1.2 -0.1
0.2 1.2 -0.1
0.3 1.2 -0.1
0.4 1.2 -0.1
0.5 1.2 -0.1
0.6 1.2 -0.1
0.7 1.2 -0.1
0.8 1.2 -0.1
0.9 1.2 -0.1
1 1.2 -0.1
1.1 1.2 -0.1
1.2 1.2 -0.1
1.3 1.2 -0.1
1.4 1.2 -0.1
1.5 1.2 -0.1
1.6 1.2 -0.1
1.7 1.2 -0.1
1.8 1.2 -0.1
1.9 1.2 -0.1
-0.1 1.3 -0.1
0 1.3 -0.1
0.1 1.3 -0.1
0.2 1.3 -0.1
0.3 1.3 -0.1
0.4 1.3 -0.1
0.5 1.3 -0.1
0.6 1.3 -0.1
0.7 1.3 -0.1
0.8 1.3 -0.1
0.9 1.3 -0.1
1 1.3 -0.1
1.1 1.3 -0.1
1.2 1.3 -0.1
1.3 1.3 -0.1
1.4 1.3 -0.1
1.5 1.3 -0.1
1.6 1.3 -0.1
1.7 1.3 -0.1
1.8 1.3 -0.1
1.9 1.3 -0.1
-0.1 1.4 -0.1
0 1.4 -0.1
0.1 1.4 -0.1
0.2 1.4 -0.1
0.3 1.4 -0.1
0.4 1.4 -0.1
0.5 1.4 -0.1
0.6 1.4 -0.1
0.7 1.4 -0.1
0.8 1.4 -0.1
0.9 1.4 -0.1
1 1.4 -0.1
1.1 1.4 -0.1
1.2 1.4 -0.1
1.3 1.4 -0.1
1.4 1.4 -0.1
1.5 1.4 -0.1
1.6 1.4 -0.1
1.7 1.4 -0.1
1.8 1.4 -0.1
1.9 1.4 -0.1
-0.1 1.5 -0.1
0 1.5 -0.1
0.1 1.5 -0.1
0.2 1.5 -0.1
0.3 1.5 -0.1
0.4 1.5 -0.1
0.5 1.5 -0.1
0.6 1.5 -0.1
0.7 1.5 -0.1
0.8 1.5 -0.1
0.9 1.5 -0.1
1 1.5 -0.1
1.1 1.5 -0.1
1.2 1.5 -0.1
1.3 1.5 -0.1
1.4 1.5 -0.1
1.5 1.5 -0.1
1.6 1.5 -0.1
1.7 1.5 -0.1
1.8 1.5 -0.1
1.9 1.5 -0.1
-0.1 1.6 -0.1
0 1.6 -0.1
0.1 1.6 -0.1
0.2 1.6 -0.1
0.3 1.6 -0.1
0.4 1.6 -0.1
0.5 1.6 -0.1
0.6 1.6 -0.1
0.7 1.6 -0.1
0.8 1.6 -0.1
0.9 1.6 -0.1
1 1.6 -0.1
1.1 1.6 -0.1
1.2 1.6 -0.1
1.3 1.6 -0.1
1.4 1.6 -0.1
1.5 1.6 -0.1
1.6 1.6 -0.1
1.7 1.6 -0.1
1.8 1.6 -0.1
1.9 1.6 -0.1
-0.1 1.7 -0.1
0 1.7 -0.1
0.1 1.7 -0.1
0.2 1.7 -0.1
0.3 1.7 -0.1
0.4 1.7 -0.1
0.5 1.7 -0.1
0.6 1.7 -0.1
0.7 1.7 -0.1
0.8 1.7 -0.1
0.9 1.7 -0.1
1 1.7 -0.1
1.1 1.7 -0.1
1.2 1.7 -0.1
1.3 1.7 -0.1
1.4 1.7 -0.1
1.5 1.7 -0.1
1.6 1.7 -0.1
1.7 1.7 -0.1
1.8 1.7 -0.1
1.9 1.7 -0.1
-0.1 1.8 -0.1
0 1.8 -0.1
0.1 1.8 -0.1
0.2 1.8 -0.1
0.3 1.8 -0.1
0.4 1.8 -0.1
0.5 1.8 -0.1
0.6 1.8 -0.1
0.7 1.8 -0.1
0.8 1.8 -0.1
0.9 1.8 -0.1
1 1.8 -0.1
1.1 1.8 -0.1
1.2 1.8 -0.1
1.3 1.8 -0.1
1.4 1.8 -0.1
1.5 1.8 -0.1
1.6 1.8 -0.1
1.7 1.8 -0.1
1.8 1.8 -0.1
1.9 1.8 -0.1
-0.1 1.9 -0.1
0 1.9 -0.1
0.1 1.9 -0.1
0.2 1.9 -0.1
0.3 1.9 -0.1
0.4 1.9 -0.1
0.5 1.9 -0.1
0.6 1.9 -0.1
0.7 1.9 -0.1
0.8 1.9 -0.1
0.9 1.9 -0.1
1 1.9 -0.1
1.1 1.9 -0.1
1.2 1.9 -0.1
1.3 1.9 -0.1
1.4 1.9 -0.1
1.5 1.9 -0.1
1.6 1.9 -0.1
1.7 1.9 -0.1
1.8 1.9 -0.1
1.9 1.9 -0.1
-0.1 -0.1 0
0 -0.1 0
0.1 -0.1 0
0.2 -0.1 0
0.3 -0.1 0
0.4 -0.1 0
0.5 -0.1 0
0.6 -0.1 0
0.7 -0.1 0
0.8 -0.1 0
0.9 -0.1 0
1 -0.1 0
1.1 -0.1 0
1.2 -0.1 0
1.3 -0.1 0
1.4 -0.1 0
1.5 -0.1 0
1.6 -0.1 0
1.7 -0.1 0
1.8 -0.1 0
1.9 -0.1 0
-0.1 0 0
0 0 0
0.1 0 0
0.2 0 0
0.3 0 0
0.4 0 0
0.5 0 0
0.6 0 0
0.7 0 0
0.8 0 0
0.9 0 0
1 0 0
1.1 0 0
1.2 0 0
1.3 0 0
1.4 0 0
1.5 0 0
1.6 0 0
1.7 0 0
1.8 0 0
1.9 0 0
-0.1 0.1 0
0 0.1 0
0.1 0.1 0
0.2 0.1 0
0.3 0.1 0
0.4 0.1 0
0.5 0.1 0
0.6 0.1 0
0.7 0.1 0
0.8 0.1 0
0.9 0.1 0
1 0.1 0
1.1 0.1 0
1.2 0.1 0
1.3 0.1 0
1.4 0.1 0
1.5 0.1 0
1.6 0.1 0
1.7 0.1 0
1.8 0.1 0
1.9 0.1 0
-0.1 0.2 0
0 0.2 0
0.1 0.2 0
0.2 0.2 0
0.3 0.2 0
0.4 0.2 0
0.5 0.2 0
0.6 0.2 0
0.7 0.2 0
0.8 0.2 0
0.9 0.2 0
1 0.2 0
1.1 0.2 0
1.2 0.2 0
1.3 0.2 0
1.4 0.2 0
1.5 0.2 0
1.6 0.2 0
1.7 0.2 0
1.8 0.2 0
1.9 0.2 0
-0.1 0.3 0
0 0.3 0
0.1 0.3 0
0.2 0.3 0
0.3 0.3 0
0.4 0.3 0
0.5 0.3 0
0.6 0.3 0
0.7 0.3 0
0.8 0.3 0
0.9 0.3 0
1 0.3 0
1.1 0.3 0
1.2 0.3 0
1.3 0.3 0
1.4 0.3 0
1.5 0.3 0
1.6 0.3 0
1.7 0.3 0
1.8 0.3 0
1.9 0.3 0
-0.1 0.4 0
0 0.4 0
0.1 0.4 0
0.2 0.4 0
0.3 0.4 0
0.4 0.4 0
0.5 0.4 0
0.6 0.4 0
0.7 0.4 0
0.8 0.4 0
0.9 0.4 0
1 0.4 0
1.1 0.4 0
1.2 0.4 0
1.3 0.4 0
1.4 0.4 0
1.5 0.4 0
1.6 0.4 0
1.7 0.4 0
1.8 0.4 0
1.9 0.4 0
-0.1 0.5 0
0 0.5 0
0.1 0.5 0
0.2 0.5 0
0.3 0.5 0
0.4 0.5 0
0.5 0.5 0
0.6 0.5 0
0.7 0.5 0
0.8 0.5 0
0.9 0.5 0
1 0.5 0
1.1 0.5 0
1.2 0.5 0
1.3 0.5 0
1.4 0.5 0
1.5 0.5 0
1.6 0.5 0
1.7 0.5 0
1.8 0.5 0
1.9 0.5 0
-0.1 0.6 0
0 0.6 0
0.1 0.6 0
0.2 0.6 0
0.3 0.6 0
0.4 0.6 0
0.5 0.6 0
0.6 0.6 0
0.7 0.6 0
0.8 0.6 0
0.9 0.6 0
1 0.6 0
1.1 0.6 0
1.2 0.6 0
1.3 0.6 0
1.4 0.6 0
1.5 0.6 0
1.6 0.6 0
1.7 0.6 0
1.8 0.6 0
1.9 0.6 0
-0.1 0.7 0
0 0.7 0
0.1 0.7 0
0.2 0.7 0
0.3 0.7 0
0.4 0.7 0
0.5 0.7 0
0.6 0.7 0
0.7 0.7 0
0.8 0.7 0
0.9 0.7 0
1 0.7 0
1.1 0.7 0
1.2 0.7 0
1.3 0.7 0
1.4 0.7 0
1.5 0.7 0
1.6 0.7 0
1.7 0.7 0
1.8 0.7 0
1.9 0.7 0
-0.1 0.8 0
0 0.8 0
0.1 0.8 0
0.2 0.8 0
0.3 0.8 0
0.4 0.8 0
0.5 0.8 0
0.6 0.8 0
0.7 0.8 0
0.8 0.8 0
0.9 0.8 0
1 0.8 0
1.1 0.8 0
1.2 0.8 0
1.3 0.8 0
1.4 0.8 0
1.5 0.8 0
1.6 0.8 0
1.7 0.8 0
1.8 0.8 0
1.9 0.8 0
-0.1 0.9 0
0 0.9 0
0.1 0.9 0
0.2 0.9 0
0.3 0.9 0
0.4 0.9 0
0.5 0.9 0
0.6 0.9 0
0.7 0.9 0
0.8 0.9 0
0.9 0.9 0
1 0.9 0
1.1 0.9 0
1.2 0.9 0
1.3 0.9 0
1.4 0.9 0
1.5 0.9 0
1.6 0.9 0
1.7 0.9 0
1.8 0.9 0
1.9 0.9 0
-0.1 1 0
0 1 0
0.1 1 0
0.2 1 0
0.3 1 0
0.4 1 0
0.5 1 0
0.6 1 0
0.7 1 0
0.8 1 0
0.9 1 0
1 1 0
1.1 1 0
1.2 1 0
1.3 1 0
1.4 1 0
1.5 1 0
1.6 1 0
1.7 1 0
1.8 1 0
1.9 1 0
-0.1 1.1 0
0 1.1 0
0.1 1.1 0
0.2 1.1 0
0.3 1.1 0
0.4 1.1 0
0.5 1.1 0
0.6 1.1 0
0.7 1.1 0
0.8 1.1 0
0.9 1.1 0
1 1.1 0
1.1 1.1 0
1.2 1.1 0
1.3 1.1 0
1.4 1.1 0
1.5 1.1 0
1.6 1.1 0
1.7 1.1 0
1.8 1.1 0
1.9 1.1 0
-0.1 1.2 0
0 1.2 0
0.1 1.2 0
0.2 1.2 0
0.3 1.2 0
0.4 1.2 0
0.5 1.2 0
0.6 1.2 0
0.7 1.2 0
0.8 1.2 0
0.9 1.2 0
1 1.2 0
1.1 1.2 0
1.2 1.2 0
1.3 1.2 0
1.4 1.2 0
1.5 1.2 0
1.6 1.2 0
1.7 1.2 0
1.8 1.2 0
1.9 1.2 0
-0.1 1.3 0
0 1.3 0
0.1 1.3 0
0.2 1.3 0
0.3 1.3 0
0.4 1.3 0
0.5 1.3 0
0.6 1.3 0
0.7 1.3 0
0.8 1.3 0
0.9 1.3 0
1 1.3 0
1.1 1.3 0
1.2 1.3 0
1.3 1.3 0
1.4 1.3 0
1.5 1.3 0
1.6 1.3 0
1.7 1.3 0
1.8 1.3 0
1.9 1.3 0
-0.1 1.4 0
0 1.4 0
0.1 1.4 0
0.2 1.4 0
0.3 1.4 0
0.4 1.4 0
0.5 1.4 0
0.6 1.4 0
0.7 1.4 0
0.8 1.4 0
0.9 1.4 0
1 1.4 0
1.1 1.4 0
1.2 1.4 0
1.3 1.4 0
1.4 1.4 0
1.5 1.4 0
1.6 1.4 0
1.7 1.4 0
1.8 1.4 0
1.9 1.4 0
-0.1 1.5 0
0 1.5 0
0.1 1.5 0
0.2 1.5 0
0.3 1.5 0
0.4 1.5 0
0.5 1.5 0
0.6 1.5 0
0.7 1.5 0
0.8 1.5 0
0.9 1.5 0
1 1.5 0
1.1 1.5 0
1.2 1.5 0
1.3 1.5 0
1.4 1.5 0
1.5 1.5 0
1.6 1.5 0
1.7 1.5 0
1.8 1.5 0
1.9 1.5 0
-0.1 1.6 0
0 1.6 0
0.1 1.6 0
0.2 1.6 0
0.3 1.6 0
0.4 1.6 0
0.5 1.6 0
0.6 1.6 0
0.7 1.6 0
0.8 1.6 0
0.9 1.6 0
1 1.6 0
1.1 1.6 0
1.2 1.6 0
1.3 1.6 0
1.4 1.6 0
1.5 1.6 0
1.6 1.6 0
1.7 1.6 0
1.8 1.6 0
1.9 1.6 0
-0.1 1.7 0
0 1.7 0
0.1 1.7 0
0.2 1.7 0
0.3 1.7 0
0.4 1.7 0
0.5 1.7 0
0.6 1.7 0
0.7 1.7 0
0.8 1.7 0
0.9 1.7 0
1 1.7 0
1.1 1.7 0
1.2 1.7 0
1.3 1.7 0
1.4 1.7 0
1.5 1.7 0
1.6 1.7 0
1.7 1.7 0
1.8 1.7 0
1.9 1.7 0
-0.1 1.8 0
0 1.8 0
0.1 1.8 0
0.2 1.8 0
0.3 1.8 0
0.4 1.8 0
0.5 1.8 0
0.6 1.8 0
0.7 1.8 0
0.8 1.8 0
0.9 1.8 0
1 1.8 0
1.1 1.8 0
1.2 1.8 0
1.3 1.8 0
1.4 1.8 0
1.5 1.8 0
1.6 1.8 0
1.7 1.8 0
1.8 1.8 0
1.9 1.8 0
-0.1 1.9 0
0 1.9 0
0.1 1.9 0
0.2 1.9 0
0.3 1.9 0
0.4 1.9 0
0.5 1.9 0
0.6 1.9 0
0.7 1.9 0
0.8 1.9 0
0.9 1.9 0
1 1.9 0
1.1 1.9 0
1.2 1.9 0
1.3 1.9 0
1.4 1.9 0
1.5 1.9 0
1.6 1.9 0
1.7 1.9 0
1.8 1.9 0
[...]
CELL_DATA 4000
VECTORS velocity double 
-1.18191e-08 0.00022867 -0.000228659
-2.41267e-08 0.000228674 -0.000228654
-4.09264e-08 0.000228674 -0.000228653
-6.06666e-08 0.000228673 -0.000228654
-8.14969e-08 0.000228673 -0.000228656
-1.0264e-07 0.000228672 -0.000228658
-1.23837e-07 0.000228671 -0.00022866
-1.44356e-07 0.00022867 -0.000228663
-1.6263e-07 0.000228669 -0.000228666
-1.76512e-07 0.000228667 -0.000228669
-1.83682e-07 0.000228666 -0.000228672
-1.82167e-07 0.000228665 -0.000228674
-1.71412e-07 0.000228664 -0.000228675
-1.53868e-07 0.000228662 -0.000228674
-1.35346e-07 0.00022866 -0.000228672
-1.21666e-07 0.000228655 -0.000228671
-1.1313e-07 0.000228648 -0.00022867
-1.0283e-07 0.000228642 -0.00022867
-8.3035e-08 0.000228641 -0.000228665
-4.15175e-08 0.000228646 -0.000228654
-8.47131e-09 0.000577597 -0.000234567
-2.2201e-08 0.0005776 -0.000234565
-4.07337e-08 0.000577598 -0.000234565
-6.1321e-08 0.000577595 -0.000234567
-8.24447e-08 0.000577592 -0.000234569
-1.03894e-07 0.00057759 -0.000234572
-1.25552e-07 0.000577588 -0.000234575
-1.46498e-07 0.000577585 -0.000234578
-1.65e-07 0.000577583 -0.000234581
-1.78949e-07 0.000577582 -0.000234584
-1.86123e-07 0.000577581 -0.000234587
-1.84578e-07 0.00057758 -0.000234588
-1.73965e-07 0.000577576 -0.000234589
-1.57469e-07 0.000577569 -0.000234589
-1.41825e-07 0.000577557 -0.000234588
-1.32135e-07 0.000577544 -0.000234589
-1.24934e-07 0.000577532 -0.000234588
-1.09844e-07 0.000577529 -0.000234584
-8.15152e-08 0.000577535 -0.000234574
-4.07576e-08 0.000577543 -0.000234561
-7.26577e-09 0.000998678 -0.000246604
-2.36237e-08 0.000998678 -0.000246603
-4.38667e-08 0.000998675 -0.000246604
-6.50318e-08 0.000998671 -0.000246605
-8.63264e-08 0.000998668 -0.000246607
-1.07888e-07 0.000998666 -0.000246609
-1.294e-07 0.000998663 -0.000246611
-1.49657e-07 0.000998661 -0.000246614
-1.67058e-07 0.00099866 -0.000246616
-1.8015e-07 0.00099866 -0.000246617
-1.87669e-07 0.00099866 -0.000246618
-1.88557e-07 0.000998657 -0.000246619
-1.82706e-07 0.00099865 -0.00024662
-1.72038e-07 0.000998637 -0.00024662
-1.60343e-07 0.000998621 -0.000246621
-1.49111e-07 0.000998606 -0.000246623
-1.33528e-07 0.000998598 -0.000246622
-1.07856e-07 0.000998599 -0.000246616
-7.49774e-08 0.000998604 -0.000246608
-3.74887e-08 0.000998602 -0.000246604
-8.9875e-09 0.00147443 -0.000265206
-2.70955e-08 0.00147443 -0.000265206
-4.76056e-08 0.00147443 -0.000265206
-6.8466e-08 0.00147442 -0.000265206
-8.95337e-08 0.00147442 -0.000265206
-1.1086e-07 0.00147442 -0.000265207
-1.31729e-07 0.00147442 -0.000265208
-1.50844e-07 0.00147442 -0.00026521
-1.67101e-07 0.00147442 -0.000265211
-1.79999e-07 0.00147442 -0.000265212
-1.89318e-07 0.00147442 -0.000265212
-1.94582e-07 0.00147442 -0.000265213
-1.94846e-07 0.00147441 -0.000265214
-1.88875e-07 0.0014744 -0.000265215
-1.76783e-07 0.00147439 -0.000265215
-1.59412e-07 0.00147438 -0.000265215
-1.35936e-07 0.00147438 -0.000265214
-1.07655e-07 0.00147438 -0.000265212
-8.10199e-08 0.00147438 -0.000265213
-4.05099e-08 0.00147436 -0.000265216
-1.14863e-08 0.0020034 -0.000291082
-2.94742e-08 0.00200339 -0.000291081
-4.92952e-08 0.00200339 -0.00029108
-6.97189e-08 0.00200339 -0.000291079
-9.04583e-08 0.00200339 -0.000291079
-1.11078e-07 0.00200339 -0.000291079
-1.30748e-07 0.00200339 -0.00029108
-1.48651e-07 0.0020034 -0.000291081
-1.64397e-07 0.0020034 -0.000291082
-1.77975e-07 0.00200341 -0.000291083
-1.89252e-07 0.00200341 -0.000291083
-1.9755e-07 0.00200341 -0.000291083
-2.01395e-07 0.00200341 -0.000291083
-1.97346e-07 0.00200341 -0.000291083
-1.8309e-07 0.0020034 -0.000291083
-1.61012e-07 0.0020034 -0.000291082
-1.35923e-07 0.0020034 -0.000291083
-1.13254e-07 0.0020034 -0.000291087
-9.67169e-08 0.0020034 -0.000291093
-4.83584e-08 0.00200338 -0.000291099
-1.16928e-08 0.00259318 -0.000325291
-2.88052e-08 0.00259318 -0.000325289
-4.84048e-08 0.00259318 -0.000325289
-6.87172e-08 0.00259318 -0.000325288
-8.86401e-08 0.00259319 -0.000325288
-1.07539e-07 0.00259319 -0.000325288
-1.25279e-07 0.0025932 -0.000325289
-1.42023e-07 0.0025932 -0.00032529
-1.57754e-07 0.00259321 -0.000325291
-1.71979e-07 0.00259322 -0.000325292
-1.8379e-07 0.00259323 -0.000325293
-1.92128e-07 0.00259323 -0.000325293
-1.9636e-07 0.00259324 -0.000325291
-1.92736e-07 0.00259325 -0.00032529
-1.77546e-07 0.00259326 -0.000325289
-1.54782e-07 0.00259326 -0.000325288
-1.32931e-07 0.00259327 -0.000325292
-1.17087e-07 0.00259327 -0.000325298
-1.06074e-07 0.00259327 -0.000325305
-5.30371e-08 0.00259326 -0.000325308
-9.08234e-09 0.00325746 -0.00036938
-2.58077e-08 0.00325747 -0.000369379
-4.54836e-08 0.00325747 -0.000369379
-6.50241e-08 0.00325748 -0.000369379
-8.29124e-08 0.00325748 -0.00036938
-9.91619e-08 0.00325749 -0.00036938
-1.14887e-07 0.0032575 -0.000369381
-1.31015e-07 0.00325752 -0.000369383
-1.47063e-07 0.00325753 -0.000369385
-1.61204e-07 0.00325754 -0.000369387
-1.71549e-07 0.00325755 -0.000369389
-1.76835e-07 0.00325757 -0.000369388
-1.78822e-07 0.00325759 -0.000369386
-1.75563e-07 0.0032576 -0.000369385
-1.62321e-07 0.00325762 -0.000369384
-1.42562e-07 0.00325763 -0.000369385
-1.25362e-07 0.00325764 -0.000369389
-1.14338e-07 0.00325764 -0.000369395
-1.02911e-07 0.00325764 -0.000369399
-5.14557e-08 0.00325764 -0.000369394
-5.80624e-09 0.00401521 -0.000425598
-2.19161e-08 0.00401522 -0.000425599
-4.01348e-08 0.00401522 -0.0004256
-5.704e-08 0.00401523 -0.0004256
-7.16858e-08 0.00401524 -0.000425601
-8.5081e-08 0.00401526 -0.000425601
-9.90887e-08 0.00401528 -0.000425602
-1.14542e-07 0.00401529 -0.000425604
-1.30058e-07 0.00401531 -0.000425606
-1.42754e-07 0.00401533 -0.000425607
-1.50917e-07 0.00401536 -0.000425609
-1.53216e-07 0.00401538 -0.00042561
-1.53626e-07 0.0040154 -0.000425609
-1.52038e-07 0.00401543 -0.00042561
-1.42564e-07 0.00401544 -0.000425611
-1.27524e-07 0.00401546 -0.000425611
-1.16207e-07 0.00401547 -0.000425615
-1.10548e-07 0.00401547 -0.00042562
-9.7833e-08 0.00401547 -0.00042562
-4.89165e-08 0.00401547 -0.000425614
-4.0927e-09 0.00489135 -0.000497265
-1.74546e-08 0.00489135 -0.000497267
-3.12184e-08 0.00489136 -0.000497267
-4.33264e-08 0.00489137 -0.000497268
-5.39689e-08 0.00489139 -0.000497268
-6.46066e-08 0.00489141 -0.000497268
-7.66615e-08 0.00489143 -0.000497268
-9.01453e-08 0.00489146 -0.000497268
-1.03481e-07 0.00489148 -0.000497268
-1.14037e-07 0.00489151 -0.000497267
-1.21666e-07 0.00489154 -0.000497269
-1.23927e-07 0.00489157 -0.000497271
-1.24798e-07 0.0048916 -0.000497273
-1.25021e-07 0.00489163 -0.000497275
-1.19214e-07 0.00489165 -0.000497276
-1.10319e-07 0.00489167 -0.000497276
-1.06409e-07 0.00489169 -0.000497279
-1.04158e-07 0.0048917 -0.000497282
-9.39606e-08 0.00489171 -0.000497277
-4.69803e-08 0.00489172 -0.000497276
-3.89773e-09 0.00591881 -0.000589407
-1.14226e-08 0.00591882 -0.000589409
-1.82937e-08 0.00591883 -0.000589409
-2.48673e-08 0.00591885 -0.000589408
-3.22614e-08 0.00591887 -0.000589409
-4.12109e-08 0.00591889 -0.000589409
-5.14411e-08 0.00591891 -0.000589409
-6.16871e-08 0.00591893 -0.000589409
-7.11635e-08 0.00591896 -0.000589408
-7.86694e-08 0.005919 -0.000589403
-8.61402e-08 0.00591904 -0.000589404
-8.89051e-08 0.00591907 -0.000589407
-8.97676e-08 0.00591911 -0.000589409
-9.07184e-08 0.00591915 -0.000589411
-8.88825e-08 0.00591918 -0.000589411
-8.70309e-08 0.00591921 -0.000589411
-8.75416e-08 0.00591923 -0.000589413
-8.28901e-08 0.00591925 -0.00058941
-7.31561e-08 0.00591928 -0.000589407
-3.6578e-08 0.0059193 -0.000589406
-2.88506e-09 0.00714245 -0.00070991
-3.13139e-09 0.00714245 -0.00070991
-3.56659e-09 0.00714247 -0.00070991
-6.225e-09 0.00714248 -0.00070991
-1.1882e-08 0.00714251 -0.000709911
-1.9314e-08 0.00714253 -0.000709911
-2.66463e-08 0.00714256 -0.000709911
-3.23305e-08 0.00714259 -0.000709908
-3.64013e-08 0.00714262 -0.000709906
-3.94475e-08 0.00714266 -0.000709898
-4.45777e-08 0.0071427 -0.000709898
-4.53862e-08 0.00714274 -0.000709899
-4.49193e-08 0.00714279 -0.0007099
-4.72393e-08 0.00714283 -0.000709901
-5.06893e-08 0.00714287 -0.000709901
-5.38011e-08 0.0071429 -0.0007099
-5.30259e-08 0.00714293 -0.000709899
-4.59638e-08 0.00714296 -0.000709895
-3.26648e-08 0.007143 -0.000709895
-1.63324e-08 0.00714302 -0.0007099
2.24857e-10 0.00862594 -0.000871674
5.94209e-09 0.00862595 -0.000871674
1.06146e-08 0.00862596 -0.000871674
1.20145e-08 0.00862598 -0.000871673
9.78986e-09 0.008626 -0.000871672
6.5603e-09 0.00862603 -0.00087167
4.24987e-09 0.00862606 -0.000871668
1.53661e-09 0.0086261 -0.000871665
1.13075e-09 0.00862613 -0.000871664
1.35074e-09 0.00862617 -0.000871657
2.98172e-10 0.00862621 -0.000871655
3.46219e-09 0.00862626 -0.000871655
4.82859e-09 0.00862631 -0.000871655
-8.17498e-10 0.00862635 -0.000871655
-9.2781e-09 0.00862639 -0.000871655
-1.36499e-08 0.00862643 -0.000871653
-1.06214e-08 0.00862646 -0.00087165
-4.51555e-09 0.0086265 -0.00087165
-6.00576e-10 0.00862653 -0.000871651
-3.00288e-10 0.00862654 -0.000871664
3.86803e-09 0.0104646 -0.00109691
1.48012e-08 0.0104646 -0.00109691
2.57432e-08 0.0104646 -0.00109691
3.30542e-08 0.0104646 -0.00109691
3.49604e-08 0.0104647 -0.00109691
3.54329e-08 0.0104647 -0.00109691
3.96626e-08 0.0104647 -0.00109691
3.74306e-08 0.0104648 -0.00109691
3.95119e-08 0.0104648 -0.0010969
4.21055e-08 0.0104648 -0.00109689
4.56391e-08 0.0104649 -0.00109689
5.21895e-08 0.0104649 -0.00109689
5.24355e-08 0.010465 -0.00109689
4.27281e-08 0.010465 -0.00109689
3.13479e-08 0.0104651 -0.00109689
2.69221e-08 0.0104651 -0.00109688
2.8787e-08 0.0104651 -0.00109688
3.04615e-08 0.0104652 -0.00109688
1.78322e-08 0.0104652 -0.00109689
8.91612e-09 0.0104652 -0.0010969
6.34159e-09 0.0128102 -0.00142627
2.1861e-08 0.0128102 -0.00142627
3.7415e-08 0.0128102 -0.00142627
5.06527e-08 0.0128102 -0.00142627
5.95869e-08 0.0128103 -0.00142627
6.51006e-08 0.0128103 -0.00142627
8.09356e-08 0.0128103 -0.00142625
7.89388e-08 0.0128104 -0.00142626
7.92906e-08 0.0128104 -0.00142625
8.19025e-08 0.0128104 -0.00142625
8.90751e-08 0.0128105 -0.00142624
9.75239e-08 0.0128105 -0.00142624
9.62406e-08 0.0128106 -0.00142624
8.43869e-08 0.0128106 -0.00142624
7.20186e-08 0.0128107 -0.00142624
6.67815e-08 0.0128107 -0.00142623
6.63936e-08 0.0128107 -0.00142623
5.60366e-08 0.0128108 -0.00142623
2.9502e-08 0.0128108 -0.00142624
1.4751e-08 0.0128108 -0.00142625
5.92418e-09 0.0159228 -0.00193982
2.52609e-08 0.0159228 -0.00193982
4.58953e-08 0.0159228 -0.00193981
6.98636e-08 0.0159228 -0.00193981
9.098e-08 0.0159229 -0.0019398
9.40154e-08 0.0159229 -0.00193982
1.09175e-07 0.0159229 -0.00193981
1.13809e-07 0.015923 -0.00193981
1.15898e-07 0.015923 -0.0019398
1.20077e-07 0.015923 -0.0019398
1.30534e-07 0.0159231 -0.00193979
1.40448e-07 0.0159231 -0.00193979
1.39501e-07 0.0159232 -0.00193979
1.28232e-07 0.0159232 -0.00193978
1.15829e-07 0.0159232 -0.00193978
1.09191e-07 0.0159233 -0.00193978
1.03362e-07 0.0159233 -0.00193978
8.1616e-08 0.0159234 -0.00193978
5.09009e-08 0.0159234 -0.00193978
2.54505e-08 0.0159234 -0.00193977
5.53308e-09 0.0202892 -0.00281004
3.70649e-08 0.0202892 -0.00281003
5.98445e-08 0.0202892 -0.00281003
7.72137e-08 0.0202892 -0.00281005
9.90649e-08 0.0202892 -0.00281003
1.2628e-07 0.0202892 -0.00281003
1.37871e-07 0.0202893 -0.00281004
1.44832e-07 0.0202893 -0.00281003
1.49128e-07 0.0202893 -0.00281003
1.56522e-07 0.0202894 -0.00281002
1.69772e-07 0.0202894 -0.00281002
1.81378e-07 0.0202894 -0.00281001
1.82763e-07 0.0202895 -0.00281001
1.73761e-07 0.0202895 -0.00281001
1.6204e-07 0.0202896 -0.00281
1.53074e-07 0.0202896 -0.00281
1.37608e-07 0.0202896 -0.00281
1.114e-07 0.0202897 -0.00281
7.75231e-08 0.0202897 -0.00281
3.87616e-08 0.0202897 -0.00280998
5.26877e-09 0.0269218 -0.00444941
4.17169e-08 0.0269218 -0.0044494
6.0409e-08 0.0269218 -0.0044494
1.05659e-07 0.0269218 -0.00444938
1.12483e-07 0.0269218 -0.00444941
1.38366e-07 0.0269218 -0.0044494
1.58669e-07 0.0269218 -0.0044494
1.70627e-07 0.0269218 -0.0044494
1.78596e-07 0.0269219 -0.0044494
1.89232e-07 0.0269219 -0.00444939
2.0363e-07 0.0269219 -0.00444939
2.16559e-07 0.026922 -0.00444938
2.21003e-07 0.026922 -0.00444938
2.15108e-07 0.026922 -0.00444938
2.03997e-07 0.0269221 -0.00444938
1.89364e-07 0.0269221 -0.00444937
1.66717e-07 0.0269221 -0.00444938
1.41688e-07 0.0269222 -0.00444938
1.26867e-07 0.0269222 -0.00444939
6.34337e-08 0.0269222 -0.00444943
-7.60243e-09 0.0382028 -0.00796468
4.93912e-08 0.0382028 -0.00796467
5.98412e-08 0.0382028 -0.00796471
8.01519e-08 0.0382028 -0.0079647
1.1942e-07 0.0382028 -0.00796468
1.47454e-07 0.0382028 -0.00796469
1.73345e-07 0.0382028 -0.00796469
1.89854e-07 0.0382028 -0.00796469
2.02397e-07 0.0382029 -0.00796469
2.14202e-07 0.0382029 -0.00796468
2.27378e-07 0.0382029 -0.00796468
2.41028e-07 0.0382029 -0.00796468
2.49033e-07 0.0382029 -0.00796467
2.47053e-07 0.038203 -0.00796467
2.36034e-07 0.038203 -0.00796467
2.15931e-07 0.038203 -0.00796467
1.88112e-07 0.0382031 -0.00796467
1.46557e-07 0.0382031 -0.00796467
1.0911e-07 0.0382031 -0.00796466
5.45549e-08 0.0382031 -0.00796465
8.14841e-09 0.0605394 -0.0166961
4.88919e-08 0.0605394 -0.0166961
7.64089e-08 0.0605394 -0.0166962
1.05723e-07 0.0605394 -0.0166962
1.241e-07 0.0605394 -0.0166962
1.54075e-07 0.0605394 -0.0166962
1.8109e-07 0.0605394 -0.0166962
2.02379e-07 0.0605394 -0.0166962
2.17978e-07 0.0605394 -0.0166962
2.27509e-07 0.0605395 -0.0166962
2.38413e-07 0.0605395 -0.0166962
2.541e-07 0.0605395 -0.0166962
2.67233e-07 0.0605395 -0.0166962
2.69189e-07 0.0605395 -0.0166962
2.57049e-07 0.0605395 -0.0166962
2.31336e-07 0.0605396 -0.0166962
1.92969e-07 0.0605396 -0.0166962
1.69484e-07 0.0605396 -0.0166961
1.26058e-07 0.0605396 -0.0166962
6.30288e-08 0.0605396 -0.0166962
-1.37867e-08 0.0302697 0.041438
5.58026e-08 0.0302697 0.041438
7.04535e-08 0.0302697 0.041438
7.42612e-08 0.0302697 0.041438
1.273e-07 0.0302697 0.041438
1.62687e-07 0.0302697 0.041438
1.88796e-07 0.0302697 0.041438
2.13078e-07 0.0302697 0.041438
2.25061e-07 0.0302697 0.041438
2.28323e-07 0.0302697 0.041438
2.39069e-07 0.0302697 0.041438
2.60917e-07 0.0302697 0.041438
2.8042e-07 0.0302697 0.041438
2.85763e-07 0.0302698 0.041438
2.77329e-07 0.0302698 0.041438
2.50035e-07 0.0302698 0.041438
1.74187e-07 0.0302698 0.041438
1.89828e-07 0.0302698 0.041438
1.29172e-07 0.0302698 0.041438
6.45859e-08 0.0302698 0.041438
-7.1793e-09 0.000222762 -0.000565727
-2.12188e-08 0.000222763 -0.000565721
-4.04323e-08 0.000222762 -0.000565722
-6.19379e-08 0.000222761 -0.000565725
-8.40282e-08 0.000222759 -0.000565729
-1.06249e-07 0.000222758 -0.000565735
-1.28416e-07 0.000222756 -0.000565741
-1.49687e-07 0.000222755 -0.000565747
-1.68388e-07 0.000222753 -0.000565753
-1.8226e-07 0.000222752 -0.000565758
-1.88721e-07 0.000222752 -0.000565763
-1.85491e-07 0.000222751 -0.000565766
-1.72186e-07 0.00022275 -0.000565768
-1.52351e-07 0.000222748 -0.000565768
-1.33114e-07 0.000222744 -0.000565768
-1.20221e-07 0.000222738 -0.000565766
-1.11636e-07 0.00022273 -0.000565761
-9.74205e-08 0.000222727 -0.000565751
-6.97494e-08 0.000222732 -0.000565735
-3.48747e-08 0.000222739 -0.000565715
-5.83901e-09 0.000562606 -0.000580297
-2.1683e-08 0.000562606 -0.000580295
-4.22128e-08 0.000562603 -0.000580297
-6.42191e-08 0.0005626 -0.000580301
-8.64843e-08 0.000562598 -0.000580305
-1.08928e-07 0.000562596 -0.00058031
-1.31309e-07 0.000562594 -0.000580316
-1.52553e-07 0.000562592 -0.000580322
-1.709e-07 0.000562591 -0.000580327
-1.84277e-07 0.000562592 -0.000580332
-1.9044e-07 0.000562592 -0.000580335
-1.87384e-07 0.000562592 -0.000580337
-1.75034e-07 0.000562588 -0.000580338
-1.57596e-07 0.000562579 -0.000580339
-1.42333e-07 0.000562566 -0.00058034
-1.32233e-07 0.00056255 -0.00058034
-1.2056e-07 0.00056254 -0.000580334
-9.73196e-08 0.00056254 -0.00058032
-6.23722e-08 0.000562546 -0.000580302
-3.11861e-08 0.000562547 -0.00058029
-6.63475e-09 0.000972581 -0.000609956
-2.43932e-08 0.000972579 -0.000609955
-4.55099e-08 0.000972576 -0.000609956
-6.7342e-08 0.000972573 -0.000609958
-8.94072e-08 0.000972572 -0.00060996
-1.11743e-07 0.00097257 -0.000609963
-1.33724e-07 0.000972569 -0.000609967
-1.53929e-07 0.000972568 -0.000609971
-1.70775e-07 0.000972569 -0.000609974
-1.83054e-07 0.00097257 -0.000609976
-1.89826e-07 0.000972571 -0.000609977
-1.90267e-07 0.00097257 -0.000609977
-1.84278e-07 0.000972562 -0.000609978
-1.73961e-07 0.000972549 -0.000609979
-1.62609e-07 0.000972532 -0.000609981
-1.49151e-07 0.000972517 -0.000609981
-1.2766e-07 0.00097251 -0.000609975
-9.70365e-08 0.000972509 -0.000609964
-6.53197e-08 0.000972505 -0.000609958
-3.26599e-08 0.000972491 -0.00060996
-8.98464e-09 0.00143551 -0.000655749
-2.72364e-08 0.0014355 -0.000655747
-4.77161e-08 0.0014355 -0.000655746
-6.88844e-08 0.0014355 -0.000655745
-9.06535e-08 0.0014355 -0.000655745
-1.1276e-07 0.0014355 -0.000655746
-1.34124e-07 0.0014355 -0.000655748
-1.53261e-07 0.0014355 -0.000655751
-1.69119e-07 0.0014355 -0.000655753
-1.81469e-07 0.00143551 -0.000655755
-1.90495e-07 0.00143551 -0.000655755
-1.96036e-07 0.00143551 -0.000655755
-1.96546e-07 0.0014355 -0.000655754
-1.90305e-07 0.00143549 -0.000655753
-1.7772e-07 0.00143548 -0.000655752
-1.58815e-07 0.00143547 -0.000655751
-1.33457e-07 0.00143546 -0.000655749
-1.06879e-07 0.00143546 -0.000655749
-8.41511e-08 0.00143545 -0.000655756
-4.20756e-08 0.00143542 -0.000655764
-1.05287e-08 0.00194972 -0.000719371
-2.80978e-08 0.00194972 -0.000719368
-4.79369e-08 0.00194972 -0.000719365
-6.88535e-08 0.00194972 -0.000719363
-9.0353e-08 0.00194972 -0.000719362
-1.11733e-07 0.00194972 -0.000719363
-1.32001e-07 0.00194973 -0.000719364
-1.50246e-07 0.00194973 -0.000719367
-1.65987e-07 0.00194974 -0.000719369
-1.79175e-07 0.00194974 -0.000719371
-1.89829e-07 0.00194974 -0.000719371
-1.981e-07 0.00194975 -0.000719369
-2.01918e-07 0.00194975 -0.000719366
-1.96799e-07 0.00194974 -0.000719361
-1.82099e-07 0.00194974 -0.000719358
-1.61539e-07 0.00194974 -0.000719358
-1.39921e-07 0.00194974 -0.000719364
-1.21636e-07 0.00194973 -0.000719374
-1.07272e-07 0.00194972 -0.000719385
-5.36361e-08 0.00194971 -0.000719391
-9.95228e-09 0.00252225 -0.000803348
-2.71418e-08 0.00252226 -0.000803344
-4.71926e-08 0.00252226 -0.000803342
-6.80233e-08 0.00252226 -0.000803341
-8.84321e-08 0.00252226 -0.00080334
-1.07888e-07 0.00252226 -0.00080334
-1.26392e-07 0.00252227 -0.000803342
-1.43959e-07 0.00252228 -0.000803344
-1.60156e-07 0.00252228 -0.000803347
-1.74043e-07 0.00252229 -0.000803349
-1.84099e-07 0.0025223 -0.000803349
-1.91032e-07 0.00252231 -0.000803345
-1.94811e-07 0.00252232 -0.000803341
-1.90298e-07 0.00252232 -0.000803335
-1.75936e-07 0.00252233 -0.000803331
-1.57438e-07 0.00252234 -0.000803335
-1.40858e-07 0.00252234 -0.000803346
-1.27578e-07 0.00252234 -0.000803358
-1.14119e-07 0.00252233 -0.000803365
-5.70594e-08 0.00252234 -0.000803363
-8.15164e-09 0.00316578 -0.000911326
-2.54906e-08 0.00316579 -0.000911325
-4.55872e-08 0.00316579 -0.000911324
-6.53278e-08 0.00316579 -0.000911323
-8.33961e-08 0.0031658 -0.000911323
-1.00226e-07 0.00316581 -0.000911324
-1.1712e-07 0.00316582 -0.000911326
-1.34502e-07 0.00316583 -0.000911329
-1.51118e-07 0.00316584 -0.000911332
-1.65042e-07 0.00316586 -0.000911335
-1.72657e-07 0.00316587 -0.000911336
-1.75281e-07 0.00316588 -0.000911332
-1.77063e-07 0.0031659 -0.000911328
-1.73915e-07 0.00316592 -0.000911324
-1.62139e-07 0.00316593 -0.000911323
-1.46537e-07 0.00316594 -0.000911329
-1.33409e-07 0.00316595 -0.000911339
-1.22705e-07 0.00316595 -0.000911347
-1.01738e-07 0.00316595 -0.000911345
-5.08691e-08 0.00316595 -0.000911333
-6.63964e-09 0.00389771 -0.00104856
-2.31864e-08 0.00389771 -0.00104856
-4.14288e-08 0.00389771 -0.00104856
-5.81908e-08 0.00389772 -0.00104856
-7.27508e-08 0.00389773 -0.00104856
-8.65387e-08 0.00389775 -0.00104856
-1.01528e-07 0.00389777 -0.00104856
-1.17814e-07 0.00389779 -0.00104856
-1.3306e-07 0.00389781 -0.00104856
-1.46473e-07 0.00389783 -0.00104857
-1.53164e-07 0.00389785 -0.00104857
-1.53598e-07 0.00389787 -0.00104856
-1.54658e-07 0.0038979 -0.00104856
-1.53203e-07 0.00389792 -0.00104856
-1.43996e-07 0.00389793 -0.00104856
-1.31764e-07 0.00389795 -0.00104857
-1.23372e-07 0.00389796 -0.00104857