# vtk DataFile Version 2.0 
Visualization 
ASCII 
DATASET STRUCTURED_GRID 
DIMENSIONS 21 21 11
POINTS 4851 float
-0.1 -0.1 -0.1
0 -0.1 -0.1
0.1 -0.1 -0.1
0.2 -0.1 -0.1
0.3 -0.1 -0.1
0.4 -0.1 -0.1
0.5 -0.1 -0.1
0.6 -0.1 -0.1
0.7 -0.1 -0.1
0.8 -0.1 -0.1
0.9 -0.1 -0.1
1 -0.1 -0.1
1.1 -0.1 -0.1
1.2 -0.1 -0.1
1.3 -0.1 -0.1
1.4 -0.1 -0.1
1.5 -0.1 -0.1
1.6 -0.1 -0.1
1.7 -0.1 -0.1
1.8 -0.1 -0.1
1.9 -0.1 -0.1
-0.1 0 -0.1
0 0 -0.1
0.1 0 -0.1
0.2 0 -0.1
0.3 0 -0.1
0.4 0 -0.1
0.5 0 -0.1
0.6 0 -0.1
0.7 0 -0.1
0.8 0 -0.1
0.9 0 -0.1
1 0 -0.1
1.1 0 -0.1
1.2 0 -0.1
1.3 0 -0.1
1.4 0 -0.1
1.5 0 -0.1
1.6 0 -0.1
1.7 0 -0.1
1.8 0 -0.1
1.9 0 -0.1
-0.1 0.1 -0.1
0 0.1 -0.1
0.1 0.1 -0.1
0.2 0.1 -0.1
0.3 0.1 -0.1
0.4 0.1 -0.1
0.5 0.1 -0.1
0.6 0.1 -0.1
0.7 0.1 -0.1
0.8 0.1 -0.1
0.9 0.1 -0.1
1 0.1 -0.1
1.1 0.1 -0.1
1.2 0.1 -0.1
1.3 0.1 -0.1
1.4 0.1 -0.1
1.5 0.1 -0.1
1.6 0.1 -0.1
1.7 0.1 -0.1
1.8 0.1 -0.1
1.9 0.1 -0.1
-0.1 0.2 -0.1
0 0.2 -0.1
0.1 0.2 -0.1
0.2 0.2 -0.1
0.3 0.2 -0.1
0.4 0.2 -0.1
0.5 0.2 -0.1
0.6 0.2 -0.1
0.7 0.2 -0.1
0.8 0.2 -0.1
0.9 0.2 -0.1
1 0.2 -0.1
1.1 0.2 -0.1
1.2 0.2 -0.1
1.3 0.2 -0.1
1.4 0.2 -0.1
1.5 0.2 -0.1
1.6 0.2 -0.1
1.7 0.2 -0.1
1.8 0.2 -0.1
1.9 0.2 -0.1
-0.1 0.3 -0.1
0 0.3 -0.1
0.1 0.3 -0.1
0.2 0.3 -0.1
0.3 0.3 -0.1
0.4 0.3 -0.1
0.5 0.3 -0.1
0.6 0.3 -0.1
0.7 0.3 -0.1
0.8 0.3 -0.1
0.9 0.3 -0.1
1 0.3 -0.1
1.1 0.3 -0.1
1.2 0.3 -0.1
1.3 0.3 -0.1
1.4 0.3 -0.1
1.5 0.3 -0.1
1.6 0.3 -0.1
1.7 0.3 -0.1
1.8 0.3 -0.1
1.9 0.3 -0.1
-0.1 0.4 -0.1
0 0.4 -0.1
0.1 0.4 -0.1
0.2 0.4 -0.1
0.3 0.4 -0.1
0.4 0.4 -0.1
0.5 0.4 -0.1
0.6 0.4 -0.1
0.7 0.4 -0.1
0.8 0.4 -0.1
0.9 0.4 -0.1
1 0.4 -0.1
1.1 0.4 -0.1
1.2 0.4 -0.1
1.3 0.4 -0.1
1.4 0.4 -0.1
1.5 0.4 -0.1
1.6 0.4 -0.1
1.7 0.4 -0.1
1.8 0.4 -0.1
1.9 0.4 -0.1
-0.1 0.5 -0.1
0 0.5 -0.1
0.1 0.5 -0.1
0.2 0.5 -0.1
0.3 0.5 -0.1
0.4 0.5 -0.1
0.5 0.5 -0.1
0.6 0.5 -0.1
0.7 0.5 -0.1
0.8 0.5 -0.1
0.9 0.5 -0.1
1 0.5 -0.1
1.1 0.5 -0.1
1.2 0.5 -0.1
1.3 0.5 -0.1
1.4 0.5 -0.1
1.5 0.5 -0.1
1.6 0.5 -0.1
1.7 0.5 -0.1
1.8 0.5 -0.1
1.9 0.5 -0.1
-0.1 0.6 -0.1
0 0.6 -0.1
0.1 0.6 -0.1
0.2 0.6 -0.1
0.3 0.6 -0.1
0.4 0.6 -0.1
0.5 0.6 -0.1
0.6 0.6 -0.1
0.7 0.6 -0.1
0.8 0.6 -0.1
0.9 0.6 -0.1
1 0.6 -0.1
1.1 0.6 -0.1
1.2 0.6 -0.1
1.3 0.6 -0.1
1.4 0.6 -0.1
1.5 0.6 -0.1
1.6 0.6 -0.1
1.7 0.6 -0.1
1.8 0.6 -0.1
1.9 0.6 -0.1
-0.1 0.7 -0.1
0 0.7 -0.1
0.1 0.7 -0.1
0.2 0.7 -0.1
0.3 0.7 -0.1
0.4 0.7 -0.1
0.5 0.7 -0.1
0.6 0.7 -0.1
0.7 0.7 -0.1
0.8 0.7 -0.1
0.9 0.7 -0.1
1 0.7 -0.1
1.1 0.7 -0.1
1.2 0.7 -0.1
1.3 0.7 -0.1
1.4 0.7 -0.1
1.5 0.7 -0.1
1.6 0.7 -0.1
1.7 0.7 -0.1
1.8 0.7 -0.1
1.9 0.7 -0.1
-0.1 0.8 -0.1
0 0.8 -0.1
0.1 0.8 -0.1
0.2 0.8 -0.1
0.3 0.8 -0.1
0.4 0.8 -0.1
0.5 0.8 -0.1
0.6 0.8 -0.1
0.7 0.8 -0.1
0.8 0.8 -0.1
0.9 0.8 -0.1
1 0.8 -0.1
1.1 0.8 -0.1
1.2 0.8 -0.1
1.3 0.8 -0.1
1.4 0.8 -0.1
1.5 0.8 -0.1
1.6 0.8 -0.1
1.7 0.8 -0.1
1.8 0.8 -0.1
1.9 0.8 -0.1
-0.1 0.9 -0.1
0 0.9 -0.1
0.1 0.9 -0.1
0.2 0.9 -0.1
0.3 0.9 -0.1
0.4 0.9 -0.1
0.5 0.9 -0.1
0.6 0.9 -0.1
0.7 0.9 -0.1
0.8 0.9 -0.1
0.9 0.9 -0.1
1 0.9 -0.1
1.1 0.9 -0.1
1.2 0.9 -0.1
1.3 0.9 -0.1
1.4 0.9 -0.1
1.5 0.9 -0.1
1.6 0.9 -0.1
1.7 0.9 -0.1
1.8 0.9 -0.1
1.9 0.9 -0.1
-0.1 1 -0.1
0 1 -0.1
0.1 1 -0.1
0.2 1 -0.1
0.3 1 -0.1
0.4 1 -0.1
0.5 1 -0.1
0.6 1 -0.1
0.7 1 -0.1
0.8 1 -0.1
0.9 1 -0.1
1 1 -0.1
1.1 1 -0.1
1.2 1 -0.1
1.3 1 -0.1
1.4 1 -0.1
1.5 1 -0.1
1.6 1 -0.1
1.7 1 -0.1
1.8 1 -0.1
1.9 1 -0.1
-0.1 1.1 -0.1
0 1.1 -0.1
0.1 1.1 -0.1
0.2 1.1 -0.1
0.3 1.1 -0.1
0.4 1.1 -0.1
0.5 1.1 -0.1
0.6 1.1 -0.1
0.7 1.1 -0.1
0.8 1.1 -0.1
0.9 1.1 -0.1
1 1.1 -0.1
1.1 1.1 -0.1
1.2 1.1 -0.1
1.3 1.1 -0.1
1.4 1.1 -0.1
1.5 1.1 -0.1
1.6 1.1 -0.1
1.7 1.1 -0.1
1.8 1.1 -0.1
1.9 1.1 -0.1
-0.1 1.2 -0.1
0 1.2 -0.1
0.1 1.2 -0.1
0.2 1.2 -0.1
0.3 1.2 -0.1
0.4 1.2 -0.1
0.5 1.2 -0.1
0.6 1.2 -0.1
0.7 1.2 -0.1
0.8 1.2 -0.1
0.9 1.2 -0.1
1 1.2 -0.1
1.1 1.2 -0.1
1.2 1.2 -0.1
1.3 1.2 -0.1
1.4 1.2 -0.1
1.5 1.2 -0.1
1.6 1.2 -0.1
1.7 1.2 -0.1
1.8 1.2 -0.1
1.9 1.2 -0.1
-0.1 1.3 -0.1
0 1.3 -0.1
0.1 1.3 -0.1
0.2 1.3 -0.1
0.3 1.3 -0.1
0.4 1.3 -0.1
0.5 1.3 -0.1
0.6 1.3 -0.1
0.7 1.3 -0.1
0.8 1.3 -0.1
0.9 1.3 -0.1
1 1.3 -0.1
1.1 1.3 -0.1
1.2 1.3 -0.1
1.3 1.3 -0.1
1.4 1.3 -0.1
1.5 1.3 -0.1
1.6 1.3 -0.1
1.7 1.3 -0.1
1.8 1.3 -0.1
1.9 1.3 -0.1
-0.1 1.4 -0.1
0 1.4 -0.1
0.1 1.4 -0.1
0.2 1.4 -0.1
0.3 1.4 -0.1
0.4 1.4 -0.1
0.5 1.4 -0.1
0.6 1.4 -0.1
0.7 1.4 -0.1
0.8 1.4 -0.1
0.9 1.4 -0.1
1 1.4 -0.1
1.1 1.4 -0.1
1.2 1.4 -0.1
1.3 1.4 -0.1
1.4 1.4 -0.1
1.5 1.4 -0.1
1.6 1.4 -0.1
1.7 1.4 -0.1
1.8 1.4 -0.1
1.9 1.4 -0.1
-0.1 1.5 -0.1
0 1.5 -0.1
0.1 1.5 -0.1
0.2 1.5 -0.1
0.3 1.5 -0.1
0.4 1.5 -0.1
0.5 1.5 -0.1
0.6 1.5 -0.1
0.7 1.5 -0.1
0.8 1.5 -0.1
0.9 1.5 -0.1
1 1.5 -0.1
1.1 1.5 -0.1
1.2 1.5 -0.1
1.3 1.5 -0.1
1.4 1.5 -0.1
1.5 1.5 -0.1
1.6 1.5 -0.1
1.7 1.5 -0.1
1.8 1.5 -0.1
1.9 1.5 -0.1
-0.1 1.6 -0.1
0 1.6 -0.1
0.1 1.6 -0.1
0.2 1.6 -0.1
0.3 1.6 -0.1
0.4 1.6 -0.1
0.5 1.6 -0.1
0.6 1.6 -0.1
0.7 1.6 -0.1
0.8 1.6 -0.1
0.9 1.6 -0.1
1 1.6 -0.1
1.1 1.6 -0.1
1.2 1.6 -0.1
1.3 1.6 -0.1
1.4 1.6 -0.1
1.5 1.6 -0.1
1.6 1.6 -0.1
1.7 1.6 -0.1
1.8 1.6 -0.1
1.9 1.6 -0.1
-0.1 1.7 -0.1
0 1.7 -0.1
0.1 1.7 -0.1
0.2 1.7 -0.1
0.3 1.7 -0.1
0.4 1.7 -0.1
0.5 1.7 -0.1
0.6 1.7 -0.1
0.7 1.7 -0.1
0.8 1.7 -0.1
0.9 1.7 -0.1
1 1.7 -0.1
1.1 1.7 -0.1
1.2 1.7 -0.1
1.3 1.7 -0.1
1.4 1.7 -0.1
1.5 1.7 -0.1
1.6 1.7 -0.1
1.7 1.7 -0.1
1.8 1.7 -0.1
1.9 1.7 -0.1
-0.1 1.8 -0.1
0 1.8 -0.1
0.1 1.8 -0.1
0.2 1.8 -0.1
0.3 1.8 -0.1
0.4 1.8 -0.1
0.5 1.8 -0.1
0.6 1.8 -0.1
0.7 1.8 -0.1
0.8 1.8 -0.1
0.9 1.8 -0.1
1 1.8 -0.1
1.1 1.8 -0.1
1.2 1.8 -0.1
1.3 1.8 -0.1
1.4 1.8 -0.1
1.5 1.8 -0.1
1.6 1.8 -0.1
1.7 1.8 -0.1
1.8 1.8 -0.1
1.9 1.8 -0.1
-0.1 1.9 -0.1
0 1.9 -0.1
0.1 1.9 -0.1
0.2 1.9 -0.1
0.3 1.9 -0.1
0.4 1.9 -0.1
0.5 1.9 -0.1
0.6 1.9 -0.1
0.7 1.9 -0.1
0.8 1.9 -0.1
0.9 1.9 -0.1
1 1.9 -0.1
1.1 1.9 -0.1
1.2 1.9 -0.1
1.3 1.9 -0.1
1.4 1.9 -0.1
1.5 1.9 -0.1
1.6 1.9 -0.1
1.7 1.9 -0.1
1.8 1.9 -0.1
1.9 1.9 -0.1
-0.1 -0.1 0
0 -0.1 0
0.1 -0.1 0
0.2 -0.1 0
0.3 -0.1 0
0.4 -0.1 0
0.5 -0.1 0
0.6 -0.1 0
0.7 -0.1 0
0.8 -0.1 0
0.9 -0.1 0
1 -0.1 0
1.1 -0.1 0
1.2 -0.1 0
1.3 -0.1 0
1.4 -0.1 0
1.5 -0.1 0
1.6 -0.1 0
1.7 -0.1 0
1.8 -0.1 0
1.9 -0.1 0
-0.1 0 0
0 0 0
0.1 0 0
0.2 0 0
0.3 0 0
0.4 0 0
0.5 0 0
0.6 0 0
0.7 0 0
0.8 0 0
0.9 0 0
1 0 0
1.1 0 0
1.2 0 0
1.3 0 0
1.4 0 0
1.5 0 0
1.6 0 0
1.7 0 0
1.8 0 0
1.9 0 0
-0.1 0.1 0
0 0.1 0
0.1 0.1 0
0.2 0.1 0
0.3 0.1 0
0.4 0.1 0
0.5 0.1 0
0.6 0.1 0
0.7 0.1 0
0.8 0.1 0
0.9 0.1 0
1 0.1 0
1.1 0.1 0
1.2 0.1 0
1.3 0.1 0
1.4 0.1 0
1.5 0.1 0
1.6 0.1 0
1.7 0.1 0
1.8 0.1 0
1.9 0.1 0
-0.1 0.2 0
0 0.2 0
0.1 0.2 0
0.2 0.2 0
0.3 0.2 0
0.4 0.2 0
0.5 0.2 0
0.6 0.2 0
0.7 0.2 0
0.8 0.2 0
0.9 0.2 0
1 0.2 0
1.1 0.2 0
1.2 0.2 0
1.3 0.2 0
1.4 0.2 0
1.5 0.2 0
1.6 0.2 0
1.7 0.2 0
1.8 0.2 0
1.9 0.2 0
-0.1 0.3 0
0 0.3 0
0.1 0.3 0
0.2 0.3 0
0.3 0.3 0
0.4 0.3 0
0.5 0.3 0
0.6 0.3 0
0.7 0.3 0
0.8 0.3 0
0.9 0.3 0
1 0.3 0
1.1 0.3 0
1.2 0.3 0
1.3 0.3 0
1.4 0.3 0
1.5 0.3 0
1.6 0.3 0
1.7 0.3 0
1.8 0.3 0
1.9 0.3 0
-0.1 0.4 0
0 0.4 0
0.1 0.4 0
0.2 0.4 0
0.3 0.4 0
0.4 0.4 0
0.5 0.4 0
0.6 0.4 0
0.7 0.4 0
0.8 0.4 0
0.9 0.4 0
1 0.4 0
1.1 0.4 0
1.2 0.4 0
1.3 0.4 0
1.4 0.4 0
1.5 0.4 0
1.6 0.4 0
1.7 0.4 0
1.8 0.4 0
1.9 0.4 0
-0.1 0.5 0
0 0.5 0
0.1 0.5 0
0.2 0.5 0
0.3 0.5 0
0.4 0.5 0
0.5 0.5 0
0.6 0.5 0
0.7 0.5 0
0.8 0.5 0
0.9 0.5 0
1 0.5 0
1.1 0.5 0
1.2 0.5 0
1.3 0.5 0
1.4 0.5 0
1.5 0.5 0
1.6 0.5 0
1.7 0.5 0
1.8 0.5 0
1.9 0.5 0
-0.1 0.6 0
0 0.6 0
0.1 0.6 0
0.2 0.6 0
0.3 0.6 0
0.4 0.6 0
0.5 0.6 0
0.6 0.6 0
0.7 0.6 0
0.8 0.6 0
0.9 0.6 0
1 0.6 0
1.1 0.6 0
1.2 0.6 0
1.3 0.6 0
1.4 0.6 0
1.5 0.6 0
1.6 0.6 0
1.7 0.6 0
1.8 0.6 0
1.9 0.6 0
-0.1 0.7 0
0 0.7 0
0.1 0.7 0
0.2 0.7 0
0.3 0.7 0
0.4 0.7 0
0.5 0.7 0
0.6 0.7 0
0.7 0.7 0
0.8 0.7 0
0.9 0.7 0
1 0.7 0
1.1 0.7 0
1.2 0.7 0
1.3 0.7 0
1.4 0.7 0
1.5 0.7 0
1.6 0.7 0
1.7 0.7 0
1.8 0.7 0
1.9 0.7 0
-0.1 0.8 0
0 0.8 0
0.1 0.8 0
0.2 0.8 0
0.3 0.8 0
0.4 0.8 0
0.5 0.8 0
0.6 0.8 0
0.7 0.8 0
0.8 0.8 0
0.9 0.8 0
1 0.8 0
1.1 0.8 0
1.2 0.8 0
1.3 0.8 0
1.4 0.8 0
1.5 0.8 0
1.6 0.8 0
1.7 0.8 0
1.8 0.8 0
1.9 0.8 0
-0.1 0.9 0
0 0.9 0
0.1 0.9 0
0.2 0.9 0
0.3 0.9 0
0.4 0.9 0
0.5 0.9 0
0.6 0.9 0
0.7 0.9 0
0.8 0.9 0
0.9 0.9 0
1 0.9 0
1.1 0.9 0
1.2 0.9 0
1.3 0.9 0
1.4 0.9 0
1.5 0.9 0
1.6 0.9 0
1.7 0.9 0
1.8 0.9 0
1.9 0.9 0
-0.1 1 0
0 1 0
0.1 1 0
0.2 1 0
0.3 1 0
0.4 1 0
0.5 1 0
0.6 1 0
0.7 1 0
0.8 1 0
0.9 1 0
1 1 0
1.1 1 0
1.2 1 0
1.3 1 0
1.4 1 0
1.5 1 0
1.6 1 0
1.7 1 0
1.8 1 0
1.9 1 0
-0.1 1.1 0
0 1.1 0
0.1 1.1 0
0.2 1.1 0
0.3 1.1 0
0.4 1.1 0
0.5 1.1 0
0.6 1.1 0
0.7 1.1 0
0.8 1.1 0
0.9 1.1 0
1 1.1 0
1.1 1.1 0
1.2 1.1 0
1.3 1.1 0
1.4 1.1 0
1.5 1.1 0
1.6 1.1 0
1.7 1.1 0
1.8 1.1 0
1.9 1.1 0
-0.1 1.2 0
0 1.2 0
0.1 1.2 0
0.2 1.2 0
0.3 1.2 0
0.4 1.2 0
0.5 1.2 0
0.6 1.2 0
0.7 1.2 0
0.8 1.2 0
0.9 1.2 0
1 1.2 0
1.1 1.2 0
1.2 1.2 0
1.3 1.2 0
1.4 1.2 0
1.5 1.2 0
1.6 1.2 0
1.7 1.2 0
1.8 1.2 0
1.9 1.2 0
-0.1 1.3 0
0 1.3 0
0.1 1.3 0
0.2 1.3 0
0.3 1.3 0
0.4 1.3 0
0.5 1.3 0
0.6 1.3 0
0.7 1.3 0
0.8 1.3 0
0.9 1.3 0
1 1.3 0
1.1 1.3 0
1.2 1.3 0
1.3 1.3 0
1.4 1.3 0
1.5 1.3 0
1.6 1.3 0
1.7 1.3 0
1.8 1.3 0
1.9 1.3 0
-0.1 1.4 0
0 1.4 0
0.1 1.4 0
0.2 1.4 0
0.3 1.4 0
0.4 1.4 0
0.5 1.4 0
0.6 1.4 0
0.7 1.4 0
0.8 1.4 0
0.9 1.4 0
1 1.4 0
1.1 1.4 0
1.2 1.4 0
1.3 1.4 0
1.4 1.4 0
1.5 1.4 0
1.6 1.4 0
1.7 1.4 0
1.8 1.4 0
1.9 1.4 0
-0.1 1.5 0
0 1.5 0
0.1 1.5 0
0.2 1.5 0
0.3 1.5 0
0.4 1.5 0
0.5 1.5 0
0.6 1.5 0
0.7 1.5 0
0.8 1.5 0
0.9 1.5 0
1 1.5 0
1.1 1.5 0
1.2 1.5 0
1.3 1.5 0
1.4 1.5 0
1.5 1.5 0
1.6 1.5 0
1.7 1.5 0
1.8 1.5 0
1.9 1.5 0
-0.1 1.6 0
0 1.6 0
0.1 1.6 0
0.2 1.6 0
0.3 1.6 0
0.4 1.6 0
0.5 1.6 0
0.6 1.6 0
0.7 1.6 0
0.8 1.6 0
0.9 1.6 0
1 1.6 0
1.1 1.6 0
1.2 1.6 0
1.3 1.6 0
1.4 1.6 0
1.5 1.6 0
1.6 1.6 0
1.7 1.6 0
1.8 1.6 0
1.9 1.6 0
-0.1 1.7 0
0 1.7 0
0.1 1.7 0
0.2 1.7 0
0.3 1.7 0
0.4 1.7 0
0.5 1.7 0
0.6 1.7 0
0.7 1.7 0
0.8 1.7 0
0.9 1.7 0
1 1.7 0
1.1 1.7 0
1.2 1.7 0
1.3 1.7 0
1.4 1.7 0
1.5 1.7 0
1.6 1.7 0
1.7 1.7 0
1.8 1.7 0
1.9 1.7 0
-0.1 1.8 0
0 1.8 0
0.1 1.8 0
0.2 1.8 0
0.3 1.8 0
0.4 1.8 0
0.5 1.8 0
0.6 1.8 0
0.7 1.8 0
0.8 1.8 0
0.9 1.8 0
1 1.8 0
1.1 1.8 0
1.2 1.8 0
1.3 1.8 0
1.4 1.8 0
1.5 1.8 0
1.6 1.8 0
1.7 1.8 0
1.8 1.8 0
1.9 1.8 0
-0.1 1.9 0
0 1.9 0
0.1 1.9 0
0.2 1.9 0
0.3 1.9 0
0.4 1.9 0
0.5 1.9 0
0.6 1.9 0
0.7 1.9 0
0.8 1.9 0
0.9 1.9 0
1 1.9 0
1.1 1.9 0
1.2 1.9 0
1.3 1.9 0
1.4 1.9 0
1.5 1.9 0
1.6 1.9 0
1.7 1.9 0
1.8 1.9 0
[...]
CELL_DATA 4000
VECTORS velocity double 
-6.01814e-07 0.000326601 -0.000325999
-5.21867e-06 0.000389229 -0.000394095
-8.35004e-06 0.000395468 -0.000402154
-9.69673e-06 0.000397173 -0.000404777
-9.53287e-06 0.000397991 -0.000406208
-8.18555e-06 0.000398462 -0.000407108
-5.95279e-06 0.000398766 -0.000407705
-3.09036e-06 0.000398977 -0.000408111
1.90354e-07 0.000399129 -0.000408379
3.71118e-06 0.000399239 -0.000408524
7.30964e-06 0.000399319 -0.000408553
1.08132e-05 0.000399354 -0.000408456
1.40437e-05 0.000399317 -0.000408213
1.68363e-05 0.000399169 -0.000407771
1.90173e-05 0.000398828 -0.000407049
2.04239e-05 0.000398163 -0.000405906
2.09177e-05 0.000396918 -0.000404118
2.04435e-05 0.000394528 -0.000401214
1.9204e-05 0.000387429 -0.000393816
9.60198e-06 0.00032353 -0.000329274
3.53002e-06 0.000881957 -0.000404767
5.99351e-07 0.00107003 -0.000496512
-3.09972e-06 0.00108853 -0.00050666
-5.64399e-06 0.00109276 -0.000509797
-6.60106e-06 0.00109469 -0.000511508
-6.06597e-06 0.00109577 -0.000512584
-4.29411e-06 0.00109644 -0.000513299
-1.5723e-06 0.00109689 -0.000513784
1.83183e-06 0.00109722 -0.0005141
5.68133e-06 0.00109746 -0.000514269
9.73311e-06 0.00109762 -0.000514301
1.37367e-05 0.00109769 -0.000514188
1.74349e-05 0.00109761 -0.000513904
2.05574e-05 0.00109728 -0.000513381
2.27992e-05 0.00109652 -0.000512521
2.3782e-05 0.00109501 -0.000511169
2.30137e-05 0.00109216 -0.000509052
1.99203e-05 0.00108656 -0.000505579
1.52468e-05 0.00106686 -0.000496069
7.62338e-06 0.000878995 -0.000407957
1.29116e-05 0.00157497 -0.000435752
1.24992e-05 0.00193736 -0.000533629
7.59713e-06 0.0019719 -0.000544374
2.89354e-06 0.00197843 -0.000547793
-1.49906e-07 0.00198124 -0.000549676
-1.331e-06 0.00198277 -0.000550859
-8.74646e-07 0.0019837 -0.000551645
8.83518e-07 0.0019843 -0.000552175
3.60817e-06 0.00198473 -0.000552515
6.97192e-06 0.00198506 -0.000552699
1.06565e-05 0.0019853 -0.000552737
1.43366e-05 0.00198541 -0.000552616
1.76703e-05 0.00198534 -0.0005523
2.02729e-05 0.00198491 -0.000551721
2.1652e-05 0.00198386 -0.000550777
2.11535e-05 0.0019817 -0.000549293
1.78291e-05 0.00197762 -0.00054697
1.04187e-05 0.00196935 -0.000543196
6.29231e-07 0.00193361 -0.000533099
3.14615e-07 0.00157273 -0.000438784
2.18515e-05 0.0023684 -0.000476173
2.41945e-05 0.00294792 -0.000581834
1.82786e-05 0.00300187 -0.000593367
1.14726e-05 0.00301014 -0.000597137
6.33202e-06 0.00301338 -0.000599241
3.39781e-06 0.00301508 -0.000600561
2.509e-06 0.00301605 -0.000601433
3.28535e-06 0.00301667 -0.00060202
5.30896e-06 0.00301711 -0.000602396
8.1711e-06 0.00301746 -0.000602598
1.1473e-05 0.00301775 -0.000602642
1.48103e-05 0.00301795 -0.000602507
1.77418e-05 0.00301796 -0.000602153
1.97414e-05 0.00301758 -0.000601508
2.0129e-05 0.00301646 -0.000600461
1.79991e-05 0.00301404 -0.000598808
1.2019e-05 0.00300937 -0.000596222
4.85192e-07 0.00299924 -0.000592069
-1.34356e-05 0.00294425 -0.000581216
-6.71779e-06 0.00236688 -0.000479137
2.93455e-05 0.00325893 -0.00053055
3.42049e-05 0.00409662 -0.000647127
2.74859e-05 0.00417357 -0.000659763
1.88439e-05 0.00418312 -0.000663962
1.18373e-05 0.00418635 -0.000666324
7.35039e-06 0.00418791 -0.000667807
5.28647e-06 0.00418871 -0.000668782
5.22858e-06 0.00418918 -0.000669433
6.6858e-06 0.00418951 -0.000669852
9.17159e-06 0.00418983 -0.000670082
1.2215e-05 0.00419015 -0.000670132
1.53269e-05 0.00419047 -0.000669981
1.79556e-05 0.00419066 -0.00066959
1.94385e-05 0.0041905 -0.000668874
1.89247e-05 0.00418958 -0.000667709
1.52866e-05 0.00418729 -0.000665855
6.89387e-06 0.00418264 -0.000662945
-8.19909e-06 0.00417127 -0.000658306
-2.53142e-05 0.00409339 -0.000646364
-1.26571e-05 0.003258 -0.000533474
3.57507e-05 0.00426092 -0.000599876
4.27381e-05 0.0053991 -0.000730788
3.5231e-05 0.00550312 -0.000744889
2.48907e-05 0.00551368 -0.000749602
1.61923e-05 0.00551649 -0.000752257
1.0331e-05 0.00551763 -0.000753919
7.26691e-06 0.00551805 -0.000755008
6.54315e-06 0.0055182 -0.000755734
7.60142e-06 0.00551833 -0.000756202
9.88571e-06 0.00551854 -0.000756461
1.28497e-05 0.0055189 -0.000756519
1.59089e-05 0.00551938 -0.000756359
1.83977e-05 0.00551985 -0.00075594
1.9527e-05 0.00552007 -0.000755156
1.82906e-05 0.00551962 -0.000753854
1.33558e-05 0.00551785 -0.000751763
2.82099e-06 0.0055137 -0.00074848
-1.54465e-05 0.00550137 -0.000743256
-3.53929e-05 0.00539644 -0.000729848
-1.76965e-05 0.00426042 -0.000602784
4.16042e-05 0.00539841 -0.000685513
5.03329e-05 0.00688345 -0.000834588
4.1865e-05 0.00701907 -0.000850562
2.9796e-05 0.00703053 -0.000855883
1.94529e-05 0.0070326 -0.000858868
1.23139e-05 0.00703303 -0.000860722
8.37998e-06 0.00703286 -0.000861929
7.14575e-06 0.00703254 -0.000862733
7.98519e-06 0.00703234 -0.000863254
1.02677e-05 0.0070324 -0.000863545
1.33615e-05 0.00703279 -0.000863617
1.65768e-05 0.00703348 -0.00086346
1.91435e-05 0.00703434 -0.00086302
2.01532e-05 0.00703512 -0.000862167
1.84273e-05 0.00703541 -0.000860725
1.24004e-05 0.0070345 -0.000858383
-1.17521e-07 0.00703121 -0.000854676
-2.14548e-05 0.00701803 -0.000848726
-4.43147e-05 0.00688139 -0.00083343
-2.21574e-05 0.00539824 -0.00068843
4.73522e-05 0.00670216 -0.000789772
5.74557e-05 0.0085871 -0.000961481
4.76996e-05 0.00875944 -0.000979811
3.37036e-05 0.00877177 -0.000985846
2.16433e-05 0.00877276 -0.000989191
1.32496e-05 0.00877219 -0.000991246
8.53975e-06 0.00877117 -0.000992572
6.94666e-06 0.00877021 -0.000993451
7.76366e-06 0.00876957 -0.00099402
1.02692e-05 0.00876941 -0.000994346
1.37362e-05 0.00876981 -0.000994444
1.73719e-05 0.00877076 -0.0009943
2.02981e-05 0.00877214 -0.000993853
2.14671e-05 0.0087737 -0.000992946
1.95101e-05 0.00877502 -0.000991365
1.25898e-05 0.00877534 -0.000988751
-1.82622e-06 0.0087733 -0.000984558
-2.63714e-05 0.00875925 -0.000977727
-5.25808e-05 0.00858569 -0.000960036
-2.62904e-05 0.00670225 -0.000792723
5.32915e-05 0.00820965 -0.000916344
6.43847e-05 0.010557 -0.00111615
5.28558e-05 0.0107719 -0.00113742
3.65859e-05 0.010785 -0.00114429
2.26378e-05 0.0107845 -0.00114802
1.29674e-05 0.0107826 -0.00115028
7.57286e-06 0.0107804 -0.00115171
5.79644e-06 0.0107786 -0.00115265
6.81995e-06 0.0107774 -0.00115326
9.81117e-06 0.0107769 -0.00115363
1.39442e-05 0.0107773 -0.00115376
1.83261e-05 0.0107786 -0.00115365
2.19683e-05 0.0107806 -0.0011532
2.36647e-05 0.0107832 -0.00115226
2.18131e-05 0.010786 -0.00115057
1.4235e-05 0.010788 -0.00114768
-2.04981e-06 0.0107876 -0.00114294
-3.0162e-05 0.0107727 -0.00113506
-6.05008e-05 0.0105563 -0.00111436
-3.02504e-05 0.00820995 -0.000919352
5.95834e-05 0.00996739 -0.00107102
7.11642e-05 0.0128526 -0.00130596
5.71752e-05 0.0131166 -0.0013309
3.81436e-05 0.0131303 -0.00133873
2.2072e-05 0.0131277 -0.00134286
1.11023e-05 0.0131238 -0.00134529
5.15259e-06 0.0131202 -0.0013468
3.41961e-06 0.0131172 -0.00134778
4.93783e-06 0.0131152 -0.00134841
8.74559e-06 0.0131143 -0.00134882
1.3924e-05 0.0131147 -0.001349
1.94871e-05 0.0131163 -0.00134894
2.43223e-05 0.0131192 -0.00134854
2.7037e-05 0.0131232 -0.00134762
2.57429e-05 0.0131278 -0.00134586
1.78314e-05 0.0131321 -0.00134273
-3.06199e-07 0.0131342 -0.00133738
-3.25209e-05 0.0131187 -0.00132824
-6.8104e-05 0.0128527 -0.00130375
-3.4052e-05 0.00996782 -0.00107411
6.62059e-05 0.0120357 -0.00126308
7.74914e-05 0.0155513 -0.00154263
6.0084e-05 0.015872 -0.00157221
3.76584e-05 0.0158856 -0.00158115
1.92128e-05 0.01588 -0.00158566
6.98218e-06 0.0158736 -0.0015882
7.0294e-07 0.0158679 -0.00158973
-6.52063e-07 0.0158634 -0.00159071
1.76328e-06 0.0158603 -0.00159135
6.84292e-06 0.0158588 -0.00159179
1.35736e-05 0.0158591 -0.00159203
2.08835e-05 0.0158612 -0.00159206
2.7541e-05 0.0158652 -0.00159176
3.19497e-05 0.015871 -0.00159093
3.188e-05 0.0158781 -0.00158918
2.41624e-05 0.0158857 -0.00158586
4.29624e-06 0.0158913 -0.0015799
-3.26665e-05 0.0158759 -0.00156927
-7.4963e-05 0.0155525 -0.00153993
-3.74815e-05 0.0120362 -0.00126626
7.283e-05 0.0144977 -0.00150802
8.24941e-05 0.0187595 -0.00184567
6.03303e-05 0.0191457 -0.00188122
3.37602e-05 0.019158 -0.00189137
1.27621e-05 0.0191479 -0.00189617
-5.18849e-07 0.0191378 -0.00189872
-6.70212e-06 0.0191293 -0.00190018
-7.14591e-06 0.0191228 -0.00190109
-3.24592e-06 0.0191183 -0.00190169
3.73899e-06 0.0191161 -0.00190214
1.27032e-05 0.0191162 -0.00190244
2.25111e-05 0.0191188 -0.00190259
3.18416e-05 0.0191241 -0.00190247
3.89017e-05 0.0191322 -0.00190185
4.10736e-05 0.0191428 -0.00190026
3.44541e-05 0.0191549 -0.0018969
1.3299e-05 0.0191659 -0.00189037
-2.90341e-05 0.0191521 -0.00187802
-7.99588e-05 0.0187624 -0.00184236
-3.99794e-05 0.0144981 -0.00151132
7.8588e-05 0.0174755 -0.00183285
8.431e-05 0.0226327 -0.00224897
5.55248e-05 0.0230943 -0.00229231
2.40258e-05 0.0231028 -0.0023037
5.51526e-07 0.023086 -0.00230858
-1.32025e-05 0.0230707 -0.00231092
-1.84839e-05 0.0230585 -0.00231215
-1.71315e-05 0.0230492 -0.00231288
-1.08584e-05 0.023043 -0.00231338
-1.0813e-06 0.0230397 -0.00231378
1.10267e-05 0.0230395 -0.00231415
2.43187e-05 0.0230427 -0.00231447
3.74567e-05 0.0230496 -0.00231463
4.85176e-05 0.0230605 -0.00231439
5.44924e-05 0.0230757 -0.00231321
5.05603e-05 0.0230944 -0.00231009
2.92277e-05 0.0231136 -0.00230321
-1.88056e-05 0.0231043 -0.00228895
-8.08359e-05 0.0226382 -0.00224495
-4.04179e-05 0.0174758 -0.00183634
8.1486e-05 0.0211631 -0.00228763
7.91751e-05 0.0274136 -0.0028149
4.1228e-05 0.0279617 -0.00286861
4.22623e-06 0.0279622 -0.00288102
-2.1005e-05 0.0279352 -0.00288552
-3.39009e-05 0.0279127 -0.00288728
-3.67728e-05 0.0278954 -0.00288802
-3.21526e-05 0.0278827 -0.00288837
-2.21487e-05 0.0278742 -0.00288863
-8.3354e-06 0.0278695 -0.00288894
8.10722e-06 0.0278689 -0.00288935
2.6141e-05 0.0278726 -0.00288989
4.45686e-05 0.0278812 -0.00289047
6.15108e-05 0.0278957 -0.00289084
7.36738e-05 0.0279167 -0.00289046
7.51964e-05 0.0279446 -0.00288811
5.61422e-05 0.0279765 -0.00288141
2.98314e-06 0.0279773 -0.0028653
-7.31668e-05 0.0274236 -0.00281007
-3.65834e-05 0.0211631 -0.00229138
7.70361e-05 0.0258946 -0.0029721
5.9387e-05 0.0335134 -0.00366676
9.02512e-06 0.0341592 -0.00373445
-3.31423e-05 0.0341437 -0.00374704
-5.79001e-05 0.0341016 -0.00375024
-6.70823e-05 0.0340691 -0.00375075
-6.47417e-05 0.0340453 -0.00375058
-5.43967e-05 0.0340284 -0.00375029
-3.86055e-05 0.0340171 -0.00375014
-1.90328e-05 0.0340109 -0.00375024
3.28059e-06 0.0340096 -0.00375066
2.76166e-05 0.0340136 -0.00375144
5.32025e-05 0.034024 -0.00375257
7.85601e-05 0.0340424 -0.00375388
0.000100473 0.0340707 -0.00375486
0.000112159 0.034111 -0.00375419
0.000100512 0.0341622 -0.00374888
4.52448e-05 0.0341827 -0.00373172
-4.80218e-05 0.0335309 -0.00366116
-2.40109e-05 0.025894 -0.00297613
5.47337e-05 0.0323014 -0.00410324
8.49975e-06 0.0416933 -0.00507001
-5.76481e-05 0.0424452 -0.00515644
-0.000101812 0.0424003 -0.00516691
-0.00012039 0.0423361 -0.00516701
-0.000119953 0.0422907 -0.00516524
-0.000107248 0.0422591 -0.00516348
-8.70433e-05 0.0422374 -0.00516214
-6.22831e-05 0.0422231 -0.00516131
-3.45165e-05 0.0422151 -0.00516103
-4.36965e-06 0.0422129 -0.00516136
2.81063e-05 0.042217 -0.00516239
6.30251e-05 0.0422288 -0.0051642
9.99763e-05 0.0422509 -0.00516682
0.000136703 0.0422872 -0.00516995
0.000166357 0.0423432 -0.00517246
0.000172472 0.0424225 -0.00517094
0.000124351 0.0424799 -0.00515539
1.33804e-05 0.0417236 -0.00506421
6.69021e-06 0.0323 -0.00410748
-1.16893e-05 0.0417043 -0.00619518
-0.000110699 0.0535069 -0.00764397
-0.000192971 0.054363 -0.0077542
-0.000227942 0.0542674 -0.00775701
-0.000226679 0.0541732 -0.00775073
-0.000204471 0.0541127 -0.00774499
-0.000171841 0.0540731 -0.00774073
-0.000134724 0.0540468 -0.00773778
-9.59876e-05 0.0540297 -0.00773591
-5.65442e-05 0.05402 -0.00773502
-1.60929e-05 0.0540168 -0.00773512
2.65202e-05 0.0540205 -0.00773633
7.29772e-05 0.0540328 -0.00773889
0.000125014 0.0540573 -0.00774313
0.000183122 0.0541006 -0.00774932
0.000243024 0.0541735 -0.00775717
0.00028715 0.0542903 -0.00776389
0.000271059 0.0544115 -0.00775696
0.000153021 0.053558 -0.00764015
7.65107e-05 0.0417018 -0.00619949
-0.000193684 0.0569954 -0.0104034
-0.000388474 0.0722124 -0.0127143
-0.000471436 0.0731414 -0.0128462
-0.000463728 0.072969 -0.0128295
-0.000410631 0.072842 -0.0128116
-0.000341593 0.0727687 -0.0127996
-0.000271017 0.0727235 -0.0127916
-0.000204657 0.0726946 -0.0127864
-0.00014381 0.0726762 -0.012783
-8.75219e-05 0.0726656 -0.0127812
-3.35854e-05 0.0726617 -0.0127809
2.11522e-05 0.0726645 -0.0127821
8.08282e-05 0.0726757 -0.0127853
0.000150752 0.0726996 -0.0127913
0.000237119 0.072745 -0.0128013
0.00034433 0.0728293 -0.0128169
0.000463856 0.0729849 -0.0128388
0.000543709 0.0732014 -0.0128563
0.000472664 0.0722928 -0.0127188
0.000236332 0.0569934 -0.010408
-0.000716514 0.0813482 -0.0159981
-0.00106287 0.100297 -0.0187573
-0.00106226 0.101155 -0.0188105
-0.000914649 0.100911 -0.0187508
-0.000734302 0.100773 -0.0187152
-0.000566364 0.100702 -0.0186948
-0.000423782 0.10066 -0.0186822
-0.000306675 0.100635 -0.018674
-0.000210634 0.100619 -0.0186688
-0.000129937 0.10061 -0.0186658
-5.85584e-05 0.100606 -0.0186648
9.88256e-06 0.100608 -0.0186659
8.28761e-05 0.100616 -0.0186695
0.000170499 0.100634 -0.0186768
0.000287912 0.100672 -0.0186904
0.000458472 0.100748 -0.018715
0.000711614 0.100912 -0.0187598
0.00104418 0.10121 -0.0188317
0.00125052 0.100391 -0.0187826
0.000625261 0.0813546 -0.0160052
-0.00225135 0.0406741 0.0550871
-0.00252615 0.0501485 0.0633203
-0.00207994 0.0505776 0.0639826
-0.00156207 0.0504556 0.0641138
-0.00113188 0.0503864 0.0641625
-0.00080555 0.0503508 0.0641879
-0.000565493 0.0503301 0.0642034
-0.000389762 0.0503173 0.0642134
-0.000259361 0.0503093 0.0642199
-0.00015926 0.0503048 0.0642237
-7.75975e-05 0.0503029 0.0642253
-4.28744e-06 0.0503038 0.0642247
7.07814e-05 0.0503079 0.0642214
0.000160597 0.0503172 0.0642142
0.000286773 0.050336 0.0641999
0.00049373 0.0503742 0.0641716
0.000888296 0.050456 0.0641102
0.00172578 0.0506049 0.0639508
0.00311056 0.0501953 0.06326
0.00155528 0.0406773 0.0550813
-8.9113e-06 0.000366117 -0.000855386
-1.60938e-05 0.000444587 -0.00104802
-1.87685e-05 0.000451845 -0.00106956
-1.86605e-05 0.000453599 -0.0010757
-1.6814e-05 0.00045442 -0.00107902
-1.38179e-05 0.000454887 -0.00108111
-1.00477e-05 0.000455182 -0.00108252
-5.76015e-06 0.000455384 -0.00108348
-1.13578e-06 0.000455531 -0.00108411
3.67393e-06 0.000455639 -0.00108445
8.53028e-06 0.000455719 -0.00108453
1.32815e-05 0.000455755 -0.0010843
1.77768e-05 0.000455719 -0.00108373
2.18921e-05 0.000455581 -0.00108268
2.5526e-05 0.000455258 -0.00108097
2.86357e-05 0.000454601 -0.00107829
3.12984e-05 0.00045335 -0.00107416
3.37296e-05 0.000450892 -0.00106731
3.46409e-05 0.000442765 -0.00104666
1.73204e-05 0.000363119 -0.000858843
-5.45586e-06 0.00101628 -0.00108382
-1.12925e-05 0.00125675 -0.00135007
-1.45659e-05 0.00127899 -0.00137825
-1.55443e-05 0.00128341 -0.00138573
-1.46494e-05 0.00128536 -0.00138974
-1.22733e-05 0.00128644 -0.00139228
-8.75791e-06 0.00128709 -0.00139399
-4.39041e-06 0.00128753 -0.00139515
5.89542e-07 0.00128784 -0.0013959
5.96973e-06 0.00128808 -0.00139631
1.15294e-05 0.00128824 -0.0013964
1.70356e-05 0.00128832 -0.00139613
2.22643e-05 0.00128825 -0.00139544
2.69819e-05 0.00128794 -0.00139418
3.09432e-05 0.00128721 -0.00139213
3.38998e-05 0.0012857 -0.00138892
3.55848e-05 0.00128279 -0.00138396
3.57125e-05 0.00127691 -0.00137561
3.34019e-05 0.00125336 -0.00134829
1.67009e-05 0.00101324 -0.00108745
5.13857e-06 0.00184862 -0.0011796
1.86272e-06 0.00231868 -0.00146786
-2.83781e-06 0.0023611 -0.00149838
-6.20317e-06 0.00236797 -0.00150663
-7.59686e-06 0.00237079 -0.00151107
-7.10629e-06 0.00237231 -0.00151388
-5.03567e-06 0.0023732 -0.00151577
-1.72273e-06 0.00237377 -0.00151705
2.51544e-06 0.00237418 -0.00151787
7.36968e-06 0.00237449 -0.00151832
1.25415e-05 0.00237472 -0.00151842
1.77234e-05 0.00237485 -0.00151813
2.25953e-05 0.0023748 -0.00151736
2.67952e-05 0.00237442 -0.00151597
2.9883e-05 0.0023734 -0.00151371
3.13116e-05 0.00237125 -0.00151017
3.02941e-05 0.00236712 -0.00150466
2.56518e-05 0.00235838 -0.00149542
1.71892e-05 0.0023146 -0.00146575
8.5946e-06 0.0018462 -0.00118312
1.49929e-05 0.00281995 -0.00129792
1.44607e-05 0.00357962 -0.00161208
8.55122e-06 0.00364684 -0.00164541
2.90501e-06 0.00365554 -0.00165459
-7.30099e-07 0.00365874 -0.00165956
-2.10688e-06 0.00366037 -0.0016627
-1.47149e-06 0.00366127 -0.0016648
7.955e-07 0.00366182 -0.00166622
4.2902e-06 0.00366222 -0.00166714
8.61732e-06 0.00366254 -0.00166764
1.33987e-05 0.00366281 -0.00166775
1.82446e-05 0.00366302 -0.00166743
2.2727e-05 0.00366308 -0.00166658
2.63305e-05 0.00366277 -0.00166504
2.84292e-05 0.00366172 -0.00166252
2.82047e-05 0.00365936 -0.00165855
2.44262e-05 0.00365471 -0.00165238
1.52951e-05 0.00364404 -0.00164207
1.86173e-06 0.00357561 -0.00160961
9.30866e-07 0.0028182 -0.0013014
2.28189e-05 0.00392471 -0.00145127
2.46682e-05 0.00503131 -0.00179975
1.78239e-05 0.00512818 -0.00183666
1.0277e-05 0.00513817 -0.00184694
4.74234e-06 0.00514123 -0.00185253
1.79512e-06 0.00514264 -0.00185605
1.24938e-06 0.00514331 -0.0018584
2.68006e-06 0.00514366 -0.00185998
5.61306e-06 0.00514391 -0.00186101
9.58154e-06 0.00514417 -0.00186157
1.41333e-05 0.00514448 -0.0018617
1.87872e-05 0.00514481 -0.00186135
2.30055e-05 0.00514506 -0.00186041
2.61341e-05 0.00514499 -0.00185871
2.73769e-05 0.00514421 -0.0018559
2.56897e-05 0.00514209 -0.00185144
1.95099e-05 0.0051376 -0.00184448
6.69215e-06 0.00512573 -0.00183291
-1.04182e-05 0.00502782 -0.00179684
-5.2091e-06 0.00392353 -0.00145473
2.90202e-05 0.00517762 -0.0016429
3.27158e-05 0.00668953 -0.00203516
2.49986e-05 0.00682133 -0.00207659
1.57897e-05 0.00683227 -0.00208815
8.63835e-06 0.00683476 -0.00209443
4.39347e-06 0.00683563 -0.00209837
2.91659e-06 0.00683584 -0.00210098
3.74287e-06 0.00683582 -0.00210274
6.33568e-06 0.00683581 -0.00210388
1.0165e-05 0.00683593 -0.00210451
1.47001e-05 0.00683626 -0.00210467
1.93628e-05 0.00683676 -0.00210431
2.35122e-05 0.0068373 -0.00210331
2.63758e-05 0.00683767 -0.00210143
2.70023e-05 0.00683743 -0.0020983
2.4137e-05 0.00683597 -0.0020933
1.59433e-05 0.0068322 -0.00208544
5.91357e-08 0.00681951 -0.00207237
-2.00556e-05 0.00668671 -0.00203177
-1.00278e-05 0.00517687 -0.00164638
3.41878e-05 0.00660517 -0.00187711
3.9194e-05 0.00858538 -0.00232398
3.04665e-05 0.00875795 -0.00237102
1.96507e-05 0.0087697 -0.00238407
1.1026e-05 0.00877123 -0.00239111
5.66897e-06 0.00877126 -0.0023955
3.46297e-06 0.00877077 -0.00239838
3.90134e-06 0.0087702 -0.00240032
6.38525e-06 0.00876981 -0.00240158
1.03159e-05 0.00876975 -0.00240229
1.50767e-05 0.00877008 -0.00240249
1.99909e-05 0.00877079 -0.00240214
2.43304e-05 0.00877174 -0.00240109
2.72046e-05 0.00877273 -0.00239905
2.75007e-05 0.00877333 -0.00239559
2.37435e-05 0.0087729 -0.00239
1.38427e-05 0.00877027 -0.00238114
-4.7995e-06 0.00875692 -0.00236628
-2.77575e-05 0.00858331 -0.00232
-1.38788e-05 0.00660475 -0.00188065
3.87927e-05 0.0082423 -0.00216039
4.45755e-05 0.0107619 -0.00267473
3.45376e-05 0.0109818 -0.00272868
2.20077e-05 0.0109943 -0.00274346
1.19307e-05 0.0109945 -0.00275132
5.56948e-06 0.0109933 -0.00275615
2.80482e-06 0.0109919 -0.0027593
3.07015e-06 0.0109906 -0.0027614
5.68953e-06 0.0109897 -0.00276278
9.9837e-06 0.0109894 -0.00276358
1.52483e-05 0.0109897 -0.00276384
2.07127e-05 0.0109907 -0.00276353
2.55573e-05 0.0109922 -0.00276245
2.87688e-05 0.010994 -0.00276028
2.90564e-05 0.0109957 -0.00275652
2.46975e-05 0.0109967 -0.00275033
1.33201e-05 0.0109957 -0.00274034
-7.99876e-06 0.0109817 -0.00272336
-3.40495e-05 0.0107607 -0.00267005
-1.70248e-05 0.00824217 -0.00216404
4.31006e-05 0.0101321 -0.00250243
4.90855e-05 0.013274 -0.00309996
3.72782e-05 0.0135484 -0.00316243
2.27878e-05 0.0135616 -0.0031792
1.11994e-05 0.01356 -0.00318792
3.91134e-06 0.0135573 -0.00319318
7.63868e-07 0.0135546 -0.00319656
1.09825e-06 0.0135524 -0.00319879
4.12985e-06 0.0135509 -0.00320026
9.08665e-06 0.0135502 -0.00320115
1.51796e-05 0.0135505 -0.0032015
2.15593e-05 0.0135517 -0.00320126
2.72999e-05 0.0135539 -0.00320021
3.12516e-05 0.0135568 -0.00319799
3.19237e-05 0.0135601 -0.00319399
2.73109e-05 0.0135629 -0.00318721