# vtk DataFile Version 2.0 
Visualization 
ASCII 
DATASET STRUCTURED_GRID 
DIMENSIONS 21 21 11
POINTS 4851 float
-0.1 -0.1 -0.1
0 -0.1 -0.1
0.1 -0.1 -0.1
0.2 -0.1 -0.1
0.3 -0.1 -0.1
0.4 -0.1 -0.1
0.5 -0.1 -0.1
0.6 -0.1 -0.1
0.7 -0.1 -0.1
0.8 -0.1 -0.1
0.9 -0.1 -0.1
1 -0.1 -0.1
1.1 -0.1 -0.1
1.2 -0.1 -0.1
1.3 -0.1 -0.1
1.4 -0.1 -0.1
1.5 -0.1 -0.1
1.6 -0.1 -0.1
1.7 -0.1 -0.1
1.8 -0.1 -0.1
1.9 -0.1 -0.1
-0.1 0 -0.1
0 0 -0.1
0.1 0 -0.1
0.2 0 -0.1
0.3 0 -0.1
0.4 0 -0.1
0.5 0 -0.1
0.6 0 -0.1
0.7 0 -0.1
0.8 0 -0.1
0.9 0 -0.1
1 0 -0.1
1.1 0 -0.1
1.2 0 -0.1
1.3 0 -0.1
1.4 0 -0.1
1.5 0 -0.1
1.6 0 -0.1
1.7 0 -0.1
1.8 0 -0.1
1.9 0 -0.1
-0.1 0.1 -0.1
0 0.1 -0.1
0.1 0.1 -0.1
0.2 0.1 -0.1
0.3 0.1 -0.1
0.4 0.1 -0.1
0.5 0.1 -0.1
0.6 0.1 -0.1
0.7 0.1 -0.1
0.8 0.1 -0.1
0.9 0.1 -0.1
1 0.1 -0.1
1.1 0.1 -0.1
1.2 0.1 -0.1
1.3 0.1 -0.1
1.4 0.1 -0.1
1.5 0.1 -0.1
1.6 0.1 -0.1
1.7 0.1 -0.1
1.8 0.1 -0.1
1.9 0.1 -0.1
-0.1 0.2 -0.1
0 0.2 -0.1
0.1 0.2 -0.1
0.2 0.2 -0.1
0.3 0.2 -0.1
0.4 0.2 -0.1
0.5 0.2 -0.1
0.6 0.2 -0.1
0.7 0.2 -0.1
0.8 0.2 -0.1
0.9 0.2 -0.1
1 0.2 -0.1
1.1 0.2 -0.1
1.2 0.2 -0.1
1.3 0.2 -0.1
1.4 0.2 -0.1
1.5 0.2 -0.1
1.6 0.2 -0.1
1.7 0.2 -0.1
1.8 0.2 -0.1
1.9 0.2 -0.1
-0.1 0.3 -0.1
0 0.3 -0.1
0.1 0.3 -0.1
0.2 0.3 -0.1
0.3 0.3 -0.1
0.4 0.3 -0.1
0.5 0.3 -0.1
0.6 0.3 -0.1
0.7 0.3 -0.1
0.8 0.3 -0.1
0.9 0.3 -0.1
1 0.3 -0.1
1.1 0.3 -0.1
1.2 0.3 -0.1
1.3 0.3 -0.1
1.4 0.3 -0.1
1.5 0.3 -0.1
1.6 0.3 -0.1
1.7 0.3 -0.1
1.8 0.3 -0.1
1.9 0.3 -0.1
-0.1 0.4 -0.1
0 0.4 -0.1
0.1 0.4 -0.1
0.2 0.4 -0.1
0.3 0.4 -0.1
0.4 0.4 -0.1
0.5 0.4 -0.1
0.6 0.4 -0.1
0.7 0.4 -0.1
0.8 0.4 -0.1
0.9 0.4 -0.1
1 0.4 -0.1
1.1 0.4 -0.1
1.2 0.4 -0.1
1.3 0.4 -0.1
1.4 0.4 -0.1
1.5 0.4 -0.1
1.6 0.4 -0.1
1.7 0.4 -0.1
1.8 0.4 -0.1
1.9 0.4 -0.1
-0.1 0.5 -0.1
0 0.5 -0.1
0.1 0.5 -0.1
0.2 0.5 -0.1
0.3 0.5 -0.1
0.4 0.5 -0.1
0.5 0.5 -0.1
0.6 0.5 -0.1
0.7 0.5 -0.1
0.8 0.5 -0.1
0.9 0.5 -0.1
1 0.5 -0.1
1.1 0.5 -0.1
1.2 0.5 -0.1
1.3 0.5 -0.1
1.4 0.5 -0.1
1.5 0.5 -0.1
1.6 0.5 -0.1
1.7 0.5 -0.1
1.8 0.5 -0.1
1.9 0.5 -0.1
-0.1 0.6 -0.1
0 0.6 -0.1
0.1 0.6 -0.1
0.2 0.6 -0.1
0.3 0.6 -0.1
0.4 0.6 -0.1
0.5 0.6 -0.1
0.6 0.6 -0.1
0.7 0.6 -0.1
0.8 0.6 -0.1
0.9 0.6 -0.1
1 0.6 -0.1
1.1 0.6 -0.1
1.2 0.6 -0.1
1.3 0.6 -0.1
1.4 0.6 -0.1
1.5 0.6 -0.1
1.6 0.6 -0.1
1.7 0.6 -0.1
1.8 0.6 -0.1
1.9 0.6 -0.1
-0.1 0.7 -0.1
0 0.7 -0.1
0.1 0.7 -0.1
0.2 0.7 -0.1
0.3 0.7 -0.1
0.4 0.7 -0.1
0.5 0.7 -0.1
0.6 0.7 -0.1
0.7 0.7 -0.1
0.8 0.7 -0.1
0.9 0.7 -0.1
1 0.7 -0.1
1.1 0.7 -0.1
1.2 0.7 -0.1
1.3 0.7 -0.1
1.4 0.7 -0.1
1.5 0.7 -0.1
1.6 0.7 -0.1
1.7 0.7 -0.1
1.8 0.7 -0.1
1.9 0.7 -0.1
-0.1 0.8 -0.1
0 0.8 -0.1
0.1 0.8 -0.1
0.2 0.8 -0.1
0.3 0.8 -0.1
0.4 0.8 -0.1
0.5 0.8 -0.1
0.6 0.8 -0.1
0.7 0.8 -0.1
0.8 0.8 -0.1
0.9 0.8 -0.1
1 0.8 -0.1
1.1 0.8 -0.1
1.2 0.8 -0.1
1.3 0.8 -0.1
1.4 0.8 -0.1
1.5 0.8 -0.1
1.6 0.8 -0.1
1.7 0.8 -0.1
1.8 0.8 -0.1
1.9 0.8 -0.1
-0.1 0.9 -0.1
0 0.9 -0.1
0.1 0.9 -0.1
0.2 0.9 -0.1
0.3 0.9 -0.1
0.4 0.9 -0.1
0.5 0.9 -0.1
0.6 0.9 -0.1
0.7 0.9 -0.1
0.8 0.9 -0.1
0.9 0.9 -0.1
1 0.9 -0.1
1.1 0.9 -0.1
1.2 0.9 -0.1
1.3 0.9 -0.1
1.4 0.9 -0.1
1.5 0.9 -0.1
1.6 0.9 -0.1
1.7 0.9 -0.1
1.8 0.9 -0.1
1.9 0.9 -0.1
-0.1 1 -0.1
0 1 -0.1
0.1 1 -0.1
0.2 1 -0.1
0.3 1 -0.1
0.4 1 -0.1
0.5 1 -0.1
0.6 1 -0.1
0.7 1 -0.1
0.8 1 -0.1
0.9 1 -0.1
1 1 -0.1
1.1 1 -0.1
1.2 1 -0.1
1.3 1 -0.1
1.4 1 -0.1
1.5 1 -0.1
1.6 1 -0.1
1.7 1 -0.1
1.8 1 -0.1
1.9 1 -0.1
-0.1 1.1 -0.1
0 1.1 -0.1
0.1 1.1 -0.1
0.2 1.1 -0.1
0.3 1.1 -0.1
0.4 1.1 -0.1
0.5 1.1 -0.1
0.6 1.1 -0.1
0.7 1.1 -0.1
0.8 1.1 -0.1
0.9 1.1 -0.1
1 1.1 -0.1
1.1 1.1 -0.1
1.2 1.1 -0.1
1.3 1.1 -0.1
1.4 1.1 -0.1
1.5 1.1 -0.1
1.6 1.1 -0.1
1.7 1.1 -0.1
1.8 1.1 -0.1
1.9 1.1 -0.1
-0.1 1.2 -0.1
0 1.2 -0.1
0.1 1.2 -0.1
0.2 1.2 -0.1
0.3 1.2 -0.1
0.4 1.2 -0.1
0.5 1.2 -0.1
0.6 1.2 -0.1
0.7 1.2 -0.1
0.8 1.2 -0.1
0.9 1.2 -0.1
1 1.2 -0.1
1.1 1.2 -0.1
1.2 1.2 -0.1
1.3 1.2 -0.1
1.4 1.2 -0.1
1.5 1.2 -0.1
1.6 1.2 -0.1
1.7 1.2 -0.1
1.8 1.2 -0.1
1.9 1.2 -0.1
-0.1 1.3 -0.1
0 1.3 -0.1
0.1 1.3 -0.1
0.2 1.3 -0.1
0.3 1.3 -0.1
0.4 1.3 -0.1
0.5 1.3 -0.1
0.6 1.3 -0.1
0.7 1.3 -0.1
0.8 1.3 -0.1
0.9 1.3 -0.1
1 1.3 -0.1
1.1 1.3 -0.1
1.2 1.3 -0.1
1.3 1.3 -0.1
1.4 1.3 -0.1
1.5 1.3 -0.1
1.6 1.3 -0.1
1.7 1.3 -0.1
1.8 1.3 -0.1
1.9 1.3 -0.1
-0.1 1.4 -0.1
0 1.4 -0.1
0.1 1.4 -0.1
0.2 1.4 -0.1
0.3 1.4 -0.1
0.4 1.4 -0.1
0.5 1.4 -0.1
0.6 1.4 -0.1
0.7 1.4 -0.1
0.8 1.4 -0.1
0.9 1.4 -0.1
1 1.4 -0.1
1.1 1.4 -0.1
1.2 1.4 -0.1
1.3 1.4 -0.1
1.4 1.4 -0.1
1.5 1.4 -0.1
1.6 1.4 -0.1
1.7 1.4 -0.1
1.8 1.4 -0.1
1.9 1.4 -0.1
-0.1 1.5 -0.1
0 1.5 -0.1
0.1 1.5 -0.1
0.2 1.5 -0.1
0.3 1.5 -0.1
0.4 1.5 -0.1
0.5 1.5 -0.1
0.6 1.5 -0.1
0.7 1.5 -0.1
0.8 1.5 -0.1
0.9 1.5 -0.1
1 1.5 -0.1
1.1 1.5 -0.1
1.2 1.5 -0.1
1.3 1.5 -0.1
1.4 1.5 -0.1
1.5 1.5 -0.1
1.6 1.5 -0.1
1.7 1.5 -0.1
1.8 1.5 -0.1
1.9 1.5 -0.1
-0.1 1.6 -0.1
0 1.6 -0.1
0.1 1.6 -0.1
0.2 1.6 -0.1
0.3 1.6 -0.1
0.4 1.6 -0.1
0.5 1.6 -0.1
0.6 1.6 -0.1
0.7 1.6 -0.1
0.8 1.6 -0.1
0.9 1.6 -0.1
1 1.6 -0.1
1.1 1.6 -0.1
1.2 1.6 -0.1
1.3 1.6 -0.1
1.4 1.6 -0.1
1.5 1.6 -0.1
1.6 1.6 -0.1
1.7 1.6 -0.1
1.8 1.6 -0.1
1.9 1.6 -0.1
-0.1 1.7 -0.1
0 1.7 -0.1
0.1 1.7 -0.1
0.2 1.7 -0.1
0.3 1.7 -0.1
0.4 1.7 -0.1
0.5 1.7 -0.1
0.6 1.7 -0.1
0.7 1.7 -0.1
0.8 1.7 -0.1
0.9 1.7 -0.1
1 1.7 -0.1
1.1 1.7 -0.1
1.2 1.7 -0.1
1.3 1.7 -0.1
1.4 1.7 -0.1
1.5 1.7 -0.1
1.6 1.7 -0.1
1.7 1.7 -0.1
1.8 1.7 -0.1
1.9 1.7 -0.1
-0.1 1.8 -0.1
0 1.8 -0.1
0.1 1.8 -0.1
0.2 1.8 -0.1
0.3 1.8 -0.1
0.4 1.8 -0.1
0.5 1.8 -0.1
0.6 1.8 -0.1
0.7 1.8 -0.1
0.8 1.8 -0.1
0.9 1.8 -0.1
1 1.8 -0.1
1.1 1.8 -0.1
1.2 1.8 -0.1
1.3 1.8 -0.1
1.4 1.8 -0.1
1.5 1.8 -0.1
1.6 1.8 -0.1
1.7 1.8 -0.1
1.8 1.8 -0.1
1.9 1.8 -0.1
-0.1 1.9 -0.1
0 1.9 -0.1
0.1 1.9 -0.1
0.2 1.9 -0.1
0.3 1.9 -0.1
0.4 1.9 -0.1
0.5 1.9 -0.1
0.6 1.9 -0.1
0.7 1.9 -0.1
0.8 1.9 -0.1
0.9 1.9 -0.1
1 1.9 -0.1
1.1 1.9 -0.1
1.2 1.9 -0.1
1.3 1.9 -0.1
1.4 1.9 -0.1
1.5 1.9 -0.1
1.6 1.9 -0.1
1.7 1.9 -0.1
1.8 1.9 -0.1
1.9 1.9 -0.1
-0.1 -0.1 0
0 -0.1 0
0.1 -0.1 0
0.2 -0.1 0
0.3 -0.1 0
0.4 -0.1 0
0.5 -0.1 0
0.6 -0.1 0
0.7 -0.1 0
0.8 -0.1 0
0.9 -0.1 0
1 -0.1 0
1.1 -0.1 0
1.2 -0.1 0
1.3 -0.1 0
1.4 -0.1 0
1.5 -0.1 0
1.6 -0.1 0
1.7 -0.1 0
1.8 -0.1 0
1.9 -0.1 0
-0.1 0 0
0 0 0
0.1 0 0
0.2 0 0
0.3 0 0
0.4 0 0
0.5 0 0
0.6 0 0
0.7 0 0
0.8 0 0
0.9 0 0
1 0 0
1.1 0 0
1.2 0 0
1.3 0 0
1.4 0 0
1.5 0 0
1.6 0 0
1.7 0 0
1.8 0 0
1.9 0 0
-0.1 0.1 0
0 0.1 0
0.1 0.1 0
0.2 0.1 0
0.3 0.1 0
0.4 0.1 0
0.5 0.1 0
0.6 0.1 0
0.7 0.1 0
0.8 0.1 0
0.9 0.1 0
1 0.1 0
1.1 0.1 0
1.2 0.1 0
1.3 0.1 0
1.4 0.1 0
1.5 0.1 0
1.6 0.1 0
1.7 0.1 0
1.8 0.1 0
1.9 0.1 0
-0.1 0.2 0
0 0.2 0
0.1 0.2 0
0.2 0.2 0
0.3 0.2 0
0.4 0.2 0
0.5 0.2 0
0.6 0.2 0
0.7 0.2 0
0.8 0.2 0
0.9 0.2 0
1 0.2 0
1.1 0.2 0
1.2 0.2 0
1.3 0.2 0
1.4 0.2 0
1.5 0.2 0
1.6 0.2 0
1.7 0.2 0
1.8 0.2 0
1.9 0.2 0
-0.1 0.3 0
0 0.3 0
0.1 0.3 0
0.2 0.3 0
0.3 0.3 0
0.4 0.3 0
0.5 0.3 0
0.6 0.3 0
0.7 0.3 0
0.8 0.3 0
0.9 0.3 0
1 0.3 0
1.1 0.3 0
1.2 0.3 0
1.3 0.3 0
1.4 0.3 0
1.5 0.3 0
1.6 0.3 0
1.7 0.3 0
1.8 0.3 0
1.9 0.3 0
-0.1 0.4 0
0 0.4 0
0.1 0.4 0
0.2 0.4 0
0.3 0.4 0
0.4 0.4 0
0.5 0.4 0
0.6 0.4 0
0.7 0.4 0
0.8 0.4 0
0.9 0.4 0
1 0.4 0
1.1 0.4 0
1.2 0.4 0
1.3 0.4 0
1.4 0.4 0
1.5 0.4 0
1.6 0.4 0
1.7 0.4 0
1.8 0.4 0
1.9 0.4 0
-0.1 0.5 0
0 0.5 0
0.1 0.5 0
0.2 0.5 0
0.3 0.5 0
0.4 0.5 0
0.5 0.5 0
0.6 0.5 0
0.7 0.5 0
0.8 0.5 0
0.9 0.5 0
1 0.5 0
1.1 0.5 0
1.2 0.5 0
1.3 0.5 0
1.4 0.5 0
1.5 0.5 0
1.6 0.5 0
1.7 0.5 0
1.8 0.5 0
1.9 0.5 0
-0.1 0.6 0
0 0.6 0
0.1 0.6 0
0.2 0.6 0
0.3 0.6 0
0.4 0.6 0
0.5 0.6 0
0.6 0.6 0
0.7 0.6 0
0.8 0.6 0
0.9 0.6 0
1 0.6 0
1.1 0.6 0
1.2 0.6 0
1.3 0.6 0
1.4 0.6 0
1.5 0.6 0
1.6 0.6 0
1.7 0.6 0
1.8 0.6 0
1.9 0.6 0
-0.1 0.7 0
0 0.7 0
0.1 0.7 0
0.2 0.7 0
0.3 0.7 0
0.4 0.7 0
0.5 0.7 0
0.6 0.7 0
0.7 0.7 0
0.8 0.7 0
0.9 0.7 0
1 0.7 0
1.1 0.7 0
1.2 0.7 0
1.3 0.7 0
1.4 0.7 0
1.5 0.7 0
1.6 0.7 0
1.7 0.7 0
1.8 0.7 0
1.9 0.7 0
-0.1 0.8 0
0 0.8 0
0.1 0.8 0
0.2 0.8 0
0.3 0.8 0
0.4 0.8 0
0.5 0.8 0
0.6 0.8 0
0.7 0.8 0
0.8 0.8 0
0.9 0.8 0
1 0.8 0
1.1 0.8 0
1.2 0.8 0
1.3 0.8 0
1.4 0.8 0
1.5 0.8 0
1.6 0.8 0
1.7 0.8 0
1.8 0.8 0
1.9 0.8 0
-0.1 0.9 0
0 0.9 0
0.1 0.9 0
0.2 0.9 0
0.3 0.9 0
0.4 0.9 0
0.5 0.9 0
0.6 0.9 0
0.7 0.9 0
0.8 0.9 0
0.9 0.9 0
1 0.9 0
1.1 0.9 0
1.2 0.9 0
1.3 0.9 0
1.4 0.9 0
1.5 0.9 0
1.6 0.9 0
1.7 0.9 0
1.8 0.9 0
1.9 0.9 0
-0.1 1 0
0 1 0
0.1 1 0
0.2 1 0
0.3 1 0
0.4 1 0
0.5 1 0
0.6 1 0
0.7 1 0
0.8 1 0
0.9 1 0
1 1 0
1.1 1 0
1.2 1 0
1.3 1 0
1.4 1 0
1.5 1 0
1.6 1 0
1.7 1 0
1.8 1 0
1.9 1 0
-0.1 1.1 0
0 1.1 0
0.1 1.1 0
0.2 1.1 0
0.3 1.1 0
0.4 1.1 0
0.5 1.1 0
0.6 1.1 0
0.7 1.1 0
0.8 1.1 0
0.9 1.1 0
1 1.1 0
1.1 1.1 0
1.2 1.1 0
1.3 1.1 0
1.4 1.1 0
1.5 1.1 0
1.6 1.1 0
1.7 1.1 0
1.8 1.1 0
1.9 1.1 0
-0.1 1.2 0
0 1.2 0
0.1 1.2 0
0.2 1.2 0
0.3 1.2 0
0.4 1.2 0
0.5 1.2 0
0.6 1.2 0
0.7 1.2 0
0.8 1.2 0
0.9 1.2 0
1 1.2 0
1.1 1.2 0
1.2 1.2 0
1.3 1.2 0
1.4 1.2 0
1.5 1.2 0
1.6 1.2 0
1.7 1.2 0
1.8 1.2 0
1.9 1.2 0
-0.1 1.3 0
0 1.3 0
0.1 1.3 0
0.2 1.3 0
0.3 1.3 0
0.4 1.3 0
0.5 1.3 0
0.6 1.3 0
0.7 1.3 0
0.8 1.3 0
0.9 1.3 0
1 1.3 0
1.1 1.3 0
1.2 1.3 0
1.3 1.3 0
1.4 1.3 0
1.5 1.3 0
1.6 1.3 0
1.7 1.3 0
1.8 1.3 0
1.9 1.3 0
-0.1 1.4 0
0 1.4 0
0.1 1.4 0
0.2 1.4 0
0.3 1.4 0
0.4 1.4 0
0.5 1.4 0
0.6 1.4 0
0.7 1.4 0
0.8 1.4 0
0.9 1.4 0
1 1.4 0
1.1 1.4 0
1.2 1.4 0
1.3 1.4 0
1.4 1.4 0
1.5 1.4 0
1.6 1.4 0
1.7 1.4 0
1.8 1.4 0
1.9 1.4 0
-0.1 1.5 0
0 1.5 0
0.1 1.5 0
0.2 1.5 0
0.3 1.5 0
0.4 1.5 0
0.5 1.5 0
0.6 1.5 0
0.7 1.5 0
0.8 1.5 0
0.9 1.5 0
1 1.5 0
1.1 1.5 0
1.2 1.5 0
1.3 1.5 0
1.4 1.5 0
1.5 1.5 0
1.6 1.5 0
1.7 1.5 0
1.8 1.5 0
1.9 1.5 0
-0.1 1.6 0
0 1.6 0
0.1 1.6 0
0.2 1.6 0
0.3 1.6 0
0.4 1.6 0
0.5 1.6 0
0.6 1.6 0
0.7 1.6 0
0.8 1.6 0
0.9 1.6 0
1 1.6 0
1.1 1.6 0
1.2 1.6 0
1.3 1.6 0
1.4 1.6 0
1.5 1.6 0
1.6 1.6 0
1.7 1.6 0
1.8 1.6 0
1.9 1.6 0
-0.1 1.7 0
0 1.7 0
0.1 1.7 0
0.2 1.7 0
0.3 1.7 0
0.4 1.7 0
0.5 1.7 0
0.6 1.7 0
0.7 1.7 0
0.8 1.7 0
0.9 1.7 0
1 1.7 0
1.1 1.7 0
1.2 1.7 0
1.3 1.7 0
1.4 1.7 0
1.5 1.7 0
1.6 1.7 0
1.7 1.7 0
1.8 1.7 0
1.9 1.7 0
-0.1 1.8 0
0 1.8 0
0.1 1.8 0
0.2 1.8 0
0.3 1.8 0
0.4 1.8 0
0.5 1.8 0
0.6 1.8 0
0.7 1.8 0
0.8 1.8 0
0.9 1.8 0
1 1.8 0
1.1 1.8 0
1.2 1.8 0
1.3 1.8 0
1.4 1.8 0
1.5 1.8 0
1.6 1.8 0
1.7 1.8 0
1.8 1.8 0
1.9 1.8 0
-0.1 1.9 0
0 1.9 0
0.1 1.9 0
0.2 1.9 0
0.3 1.9 0
0.4 1.9 0
0.5 1.9 0
0.6 1.9 0
0.7 1.9 0
0.8 1.9 0
0.9 1.9 0
1 1.9 0
1.1 1.9 0
1.2 1.9 0
1.3 1.9 0
1.4 1.9 0
1.5 1.9 0
1.6 1.9 0
1.7 1.9 0
1.8 1.9 0
[...]
CELL_DATA 4000
VECTORS velocity double 
-6.02413e-06 0.000326084 -0.00032006
-1.25801e-05 0.000395151 -0.00039245
-1.66443e-05 0.000403976 -0.000403879
-1.78778e-05 0.000406627 -0.000408104
-1.6736e-05 0.000407865 -0.0004103
-1.38148e-05 0.000408605 -0.000411631
-9.6437e-06 0.000409145 -0.000412531
-4.64967e-06 0.000409594 -0.000413179
8.195e-07 0.000409987 -0.000413636
6.4592e-06 0.00041033 -0.000413912
1.19772e-05 0.000410608 -0.000413982
1.70713e-05 0.000410785 -0.000413797
2.14176e-05 0.000410804 -0.000413284
2.46683e-05 0.000410574 -0.000412331
2.64579e-05 0.000409952 -0.000410794
2.64301e-05 0.000408718 -0.000408471
2.43025e-05 0.000406534 -0.000405093
2.00074e-05 0.000402716 -0.000400157
1.39818e-05 0.000393281 -0.000390074
6.99088e-06 0.000325035 -0.000322393
-4.25513e-07 0.000894206 -0.000405498
-5.06183e-06 0.00110635 -0.000510582
-1.00825e-05 0.00113419 -0.000526769
-1.31106e-05 0.0011415 -0.000532281
-1.36154e-05 0.00114464 -0.000535083
-1.18384e-05 0.00114642 -0.000536774
-8.23219e-06 0.00114768 -0.000537914
-3.26212e-06 0.00114872 -0.000538728
2.63604e-06 0.00114963 -0.000539298
9.04588e-06 0.00115044 -0.000539638
1.55446e-05 0.0011511 -0.000539721
2.16812e-05 0.00115154 -0.000539488
2.69599e-05 0.0011516 -0.000538846
3.0824e-05 0.00115106 -0.000537659
3.26467e-05 0.00114954 -0.000535739
3.17395e-05 0.00114649 -0.000532828
2.7412e-05 0.001141 -0.000528554
1.93049e-05 0.00113092 -0.000522129
9.33627e-06 0.00110223 -0.000507614
4.66814e-06 0.00089401 -0.000408551
1.38546e-05 0.00160664 -0.000442916
1.48742e-05 0.00202355 -0.000556928
9.44361e-06 0.00207839 -0.000574269
3.85446e-06 0.00209107 -0.000580366
4.10483e-07 0.0020961 -0.000583543
-4.95673e-07 0.00209886 -0.000585465
8.62418e-07 0.00210077 -0.000586752
4.02637e-06 0.00210234 -0.000587663
8.50292e-06 0.00210374 -0.000588295
1.37871e-05 0.002105 -0.000588668
1.93467e-05 0.00210607 -0.000588754
2.45982e-05 0.00210681 -0.000588487
2.88769e-05 0.00210699 -0.000587763
3.14017e-05 0.00210623 -0.000586432
3.12364e-05 0.00210394 -0.000584284
2.72527e-05 0.0020992 -0.000581032
1.81462e-05 0.00209053 -0.00057629
3.07251e-06 0.00207374 -0.000569304
-1.31657e-05 0.00201814 -0.000553842
-6.58284e-06 0.00160808 -0.00044594
2.90347e-05 0.00242232 -0.00048918
3.68252e-05 0.00309999 -0.000612354
3.1298e-05 0.00318947 -0.000630678
2.29881e-05 0.00320769 -0.000637407
1.62993e-05 0.00321429 -0.000641033
1.23992e-05 0.00321777 -0.000643242
1.12348e-05 0.00322014 -0.000644714
1.23577e-05 0.00322208 -0.000645748
1.52051e-05 0.00322385 -0.000646461
1.91682e-05 0.00322551 -0.000646879
2.35874e-05 0.00322697 -0.000646974
2.77236e-05 0.00322808 -0.000646672
3.07144e-05 0.00322851 -0.000645855
3.15179e-05 0.00322776 -0.000644354
2.88494e-05 0.00322503 -0.00064193
2.11091e-05 0.00321912 -0.000638268
6.41379e-06 0.00320799 -0.000632984
-1.62349e-05 0.00318476 -0.000625417
-3.80479e-05 0.00309466 -0.000609181
-1.90239e-05 0.00242555 -0.000492019
4.30386e-05 0.003336 -0.000549547
5.75209e-05 0.0043293 -0.000685298
5.20078e-05 0.00446165 -0.000704999
4.1051e-05 0.00448557 -0.000712472
3.11845e-05 0.00449328 -0.00071661
2.43836e-05 0.00449713 -0.000719148
2.08227e-05 0.0044997 -0.000720834
2.0059e-05 0.00450184 -0.000722014
2.14514e-05 0.00450385 -0.000722827
2.42765e-05 0.00450583 -0.000723307
2.77366e-05 0.00450769 -0.000723423
3.09229e-05 0.00450924 -0.000723092
3.27567e-05 0.0045101 -0.000722178
3.19195e-05 0.00450965 -0.000720486
2.67696e-05 0.00450693 -0.000717741
1.52531e-05 0.0045005 -0.000713594
-5.00362e-06 0.00448777 -0.000707655
-3.48853e-05 0.00445826 -0.000699347
-6.13217e-05 0.00432524 -0.000681937
-3.06609e-05 0.00334096 -0.000552224
5.59267e-05 0.004361 -0.000624771
7.66603e-05 0.005727 -0.000777042
7.10441e-05 0.00591126 -0.000798652
5.74371e-05 0.0059412 -0.000806999
4.44624e-05 0.00594953 -0.000811698
3.48906e-05 0.00595338 -0.00081459
2.91147e-05 0.00595587 -0.000816508
2.66863e-05 0.00595799 -0.00081785
2.68764e-05 0.00596012 -0.000818779
2.88401e-05 0.00596234 -0.000819337
3.16326e-05 0.00596461 -0.000819491
3.41627e-05 0.00596671 -0.000819144
3.51223e-05 0.00596822 -0.000818141
3.29011e-05 0.00596843 -0.000816249
2.54853e-05 0.00596623 -0.000813153
1.03682e-05 0.00595994 -0.000808454
-1.52744e-05 0.00594637 -0.000801743
-5.2106e-05 0.0059104 -0.000792491
-8.27958e-05 0.00572507 -0.000773376
-4.13979e-05 0.00436763 -0.000627375
6.82259e-05 0.0055201 -0.000715495
9.47394e-05 0.00732073 -0.00088853
8.87215e-05 0.00756688 -0.000912658
7.23029e-05 0.00760333 -0.00092202
5.6175e-05 0.00761179 -0.000927323
4.38863e-05 0.00761519 -0.000930582
3.60305e-05 0.00761729 -0.000932737
3.21385e-05 0.00761917 -0.000934247
3.13835e-05 0.00762125 -0.000935304
3.2792e-05 0.00762366 -0.000935957
3.52619e-05 0.00762636 -0.000936169
3.75082e-05 0.00762916 -0.000935829
3.79746e-05 0.00763158 -0.000934754
3.47296e-05 0.00763286 -0.000932672
2.53498e-05 0.00763173 -0.000929211
6.8369e-06 0.00762628 -0.000923909
-2.41119e-05 0.00761257 -0.000916307
-6.79429e-05 0.0075696 -0.000905882
-0.000103097 0.00732157 -0.000884455
-5.15484e-05 0.00552831 -0.000718142
8.0441e-05 0.00684153 -0.000823006
0.000112288 0.00914625 -0.00102151
0.000105394 0.00946524 -0.00104885
8.58211e-05 0.00950879 -0.00105938
6.63588e-05 0.0095168 -0.00106531
5.13172e-05 0.00951923 -0.00106894
4.14634e-05 0.00952054 -0.00107132
3.62888e-05 0.00952189 -0.00107299
3.48556e-05 0.00952373 -0.00107418
3.60526e-05 0.00952624 -0.00107495
3.86132e-05 0.00952941 -0.00107524
4.10434e-05 0.00953306 -0.00107495
4.1512e-05 0.00953673 -0.00107384
3.77196e-05 0.00953958 -0.00107159
2.67663e-05 0.00954021 -0.00106778
5.07191e-06 0.0095364 -0.00106184
-3.12467e-05 0.00952325 -0.00105323
-8.24979e-05 0.00947256 -0.00104137
-0.000122827 0.00915036 -0.00101694
-6.14133e-05 0.00685124 -0.000825834
9.2919e-05 0.00835833 -0.000949681
0.0001296 0.0112467 -0.00117914
0.00012113 0.0116506 -0.00121048
9.78555e-05 0.0117018 -0.00122233
7.47442e-05 0.0117086 -0.00122891
5.68431e-05 0.0117094 -0.00123287
4.50525e-05 0.0117093 -0.00123545
3.87918e-05 0.0117098 -0.00123727
3.69961e-05 0.0117111 -0.00123859
3.84068e-05 0.0117136 -0.00123948
4.15867e-05 0.0117172 -0.00123989
4.48188e-05 0.0117219 -0.00123968
4.59621e-05 0.0117273 -0.0012386
4.22871e-05 0.0117323 -0.00123627
3.03134e-05 0.0117356 -0.00123214
5.7255e-06 0.0117345 -0.00122555
-3.61273e-05 0.0117229 -0.00121582
-9.55755e-05 0.0116637 -0.00120225
-0.00014228 0.0112546 -0.00117401
-7.11398e-05 0.00836941 -0.000952856
0.000105783 0.0101099 -0.00109968
0.000146562 0.0136747 -0.00136686
0.000135481 0.0141768 -0.00140315
0.000107719 0.0142359 -0.00141649
8.05267e-05 0.0142404 -0.00142368
5.9634e-05 0.0142385 -0.0014279
4.6003e-05 0.0142364 -0.00143062
3.89316e-05 0.0142354 -0.00143254
3.72013e-05 0.0142359 -0.00143398
3.94004e-05 0.0142381 -0.001435
4.39171e-05 0.0142422 -0.00143557
4.88029e-05 0.0142482 -0.00143552
5.15768e-05 0.0142557 -0.00143455
4.90021e-05 0.0142638 -0.00143223
3.68687e-05 0.014271 -0.00142789
9.89311e-06 0.014274 -0.0014207
-3.76533e-05 0.0142654 -0.00140978
-0.000106407 0.0141973 -0.00139417
-0.000161258 0.0136872 -0.00136111
-8.06292e-05 0.0101222 -0.00110341
0.000118826 0.0121465 -0.00128025
0.00016241 0.0164973 -0.0015941
0.000147174 0.0171123 -0.00163654
0.000113853 0.017179 -0.0016515
8.20687e-05 0.0171795 -0.0016592
5.81097e-05 0.0171736 -0.00166354
4.28679e-05 0.0171684 -0.00166628
3.54369e-05 0.0171652 -0.00166824
3.44087e-05 0.0171642 -0.00166974
3.82125e-05 0.0171658 -0.0016709
4.50735e-05 0.0171703 -0.00167166
5.28206e-05 0.0171777 -0.00167185
5.86149e-05 0.017188 -0.00167114
5.86315e-05 0.0172003 -0.001669
4.77421e-05 0.0172131 -0.00166465
1.9355e-05 0.0172226 -0.00165699
-3.38358e-05 0.0172194 -0.00164485
-0.000113281 0.0171427 -0.00162685
-0.000178791 0.0165159 -0.00158768
-8.93955e-05 0.0121595 -0.0012848
0.000131288 0.0145372 -0.00150438
0.000175291 0.0198066 -0.00187748
0.000153561 0.0205504 -0.00192765
0.000113285 0.0206232 -0.00194428
7.64227e-05 0.0206169 -0.00195227
4.954e-05 0.020605 -0.0019565
3.32215e-05 0.0205953 -0.00195907
2.62213e-05 0.0205887 -0.00196093
2.6887e-05 0.0205855 -0.00196243
3.34884e-05 0.020586 -0.00196369
4.41235e-05 0.0205905 -0.00196468
5.64446e-05 0.0205996 -0.00196521
6.72797e-05 0.0206133 -0.00196494
7.21622e-05 0.0206313 -0.00196325
6.48318e-05 0.020652 -0.00195919
3.69107e-05 0.0206715 -0.00195137
-2.12788e-05 0.0206777 -0.00193814
-0.000112918 0.0205943 -0.00191742
-0.000192606 0.0198334 -0.00187037
-9.6303e-05 0.0145505 -0.00151006
0.000141394 0.0173864 -0.00179593
0.000181383 0.0237381 -0.0022474
0.000149603 0.0246275 -0.00230743
0.000100667 0.0247028 -0.0023256
5.85107e-05 0.0246856 -0.0023334
2.93866e-05 0.0246647 -0.00233711
1.31492e-05 0.0246485 -0.00233922
7.9875e-06 0.0246372 -0.00234077
1.19262e-05 0.0246307 -0.00234214
2.309e-05 0.0246292 -0.00234345
3.9523e-05 0.0246334 -0.00234468
5.8818e-05 0.024644 -0.00234566
7.7587e-05 0.0246617 -0.00234605
9.07617e-05 0.024687 -0.00234519
9.0766e-05 0.0247188 -0.00234194
6.68241e-05 0.0247532 -0.00233455
5.64719e-06 0.0247755 -0.00232066
-9.93685e-05 0.0246904 -0.00229702
-0.000198131 0.0237768 -0.0022396
-9.90653e-05 0.017399 -0.00180318
0.000145313 0.0208662 -0.00220118
0.000173059 0.0285095 -0.00276201
0.000125843 0.0295608 -0.00283479
6.64549e-05 0.0296312 -0.00285394
1.96484e-05 0.0295967 -0.0028607
-9.83371e-06 0.0295628 -0.00286323
-2.36075e-05 0.0295374 -0.00286442
-2.44014e-05 0.0295196 -0.00286536
-1.46254e-05 0.0295084 -0.00286639
3.73412e-06 0.0295039 -0.00286763
2.88088e-05 0.0295069 -0.00286907
5.83632e-05 0.0295187 -0.0028706
8.90858e-05 0.0295408 -0.00287191
0.00011557 0.029575 -0.00287237
0.000128938 0.0296217 -0.00287071
0.000115363 0.0296781 -0.00286478
5.61062e-05 0.0297271 -0.00285128
-6.20014e-05 0.0296507 -0.00282494
-0.000186431 0.0285665 -0.00275369
-9.32154e-05 0.0208767 -0.00221048
0.00013471 0.0252864 -0.00281571
0.000134863 0.0345012 -0.00354008
6.42438e-05 0.0357265 -0.00362946
-6.62858e-06 0.035778 -0.00364809
-5.51967e-05 0.0357165 -0.00365227
-8.0577e-05 0.0356644 -0.00365259
-8.71058e-05 0.0356269 -0.0036522
-7.89458e-05 0.0356003 -0.00365208
-5.9077e-05 0.0355828 -0.00365247
-2.95234e-05 0.035574 -0.00365343
8.1708e-06 0.0355746 -0.00365498
5.23443e-05 0.0355866 -0.00365709
0.000100352 0.0356129 -0.00365959
0.000147169 0.0356571 -0.00366195
0.00018319 0.0357224 -0.00366298
0.000191258 0.0358095 -0.00366021
0.000144769 0.0359016 -0.00364924
1.82993e-05 0.0358547 -0.00362167
-0.000139822 0.034587 -0.00353187
-6.9911e-05 0.0252925 -0.00282767
9.06654e-05 0.031259 -0.00385374
3.42515e-05 0.0424413 -0.00484366
-7.06918e-05 0.0438394 -0.00495442
-0.000150698 0.0438469 -0.00496913
-0.000192665 0.0437454 -0.00496812
-0.000204021 0.0436692 -0.0049647
-0.000193789 0.0436164 -0.00496185
-0.000168236 0.0435792 -0.00496008
-0.000131013 0.0435539 -0.00495939
-8.40168e-05 0.0435392 -0.00495976
-2.80967e-05 0.0435361 -0.00496121
3.62904e-05 0.0435469 -0.00496383
0.000108181 0.0435759 -0.00496766
0.00018444 0.0436292 -0.00497251
0.000256593 0.0437152 -0.00497755
0.000305402 0.0438419 -0.00498049
0.000294392 0.0439992 -0.00497606
0.000176326 0.0440196 -0.00495143
-2.19391e-05 0.0425728 -0.00483737
-1.09696e-05 0.0312577 -0.00386895
-3.2709e-05 0.0401089 -0.00583163
-0.000200886 0.0538508 -0.00728889
-0.000351628 0.0553867 -0.00742529
-0.00042742 0.0553098 -0.00742909
-0.00044136 0.0551536 -0.00741885
-0.000417115 0.055049 -0.00740974
-0.000371122 0.0549795 -0.00740334
-0.000312349 0.054931 -0.00739923
-0.000244989 0.0548973 -0.00739695
-0.000170399 0.0548762 -0.00739631
-8.81456e-05 0.0548682 -0.00739734
3.42147e-06 0.0548758 -0.00740022
0.000106525 0.0549042 -0.00740532
0.000222525 0.0549626 -0.00741298
0.000348281 0.055066 -0.00742327
0.000467878 0.0552353 -0.00743506
0.000537517 0.0554807 -0.00744364
0.000475888 0.0556289 -0.00743155
0.000246309 0.0540521 -0.00728882
0.000123155 0.0400975 -0.00585059
-0.000356844 0.0548127 -0.0099227
-0.000740223 0.0719439 -0.0121846
-0.00093321 0.0734984 -0.0123379
-0.000958197 0.0732863 -0.0123177
-0.0008911 0.0730699 -0.0122929
-0.000784245 0.0729405 -0.0122761
-0.000664081 0.0728584 -0.0122652
-0.000541934 0.0728019 -0.0122581
-0.000421482 0.0727623 -0.0122538
-0.000302398 0.0727364 -0.0122518
-0.000181811 0.072724 -0.012252
-5.46918e-05 0.072727 -0.0122547
8.62231e-05 0.0727506 -0.0122607
0.000250281 0.0728056 -0.0122709
0.000446938 0.0729126 -0.0122869
0.000677451 0.0731089 -0.0123102
0.000909946 0.073443 -0.0123399
0.00103033 0.073787 -0.0123586
0.000848712 0.0722313 -0.0121988
0.000424356 0.0547959 -0.00994651
-0.00123479 0.0789415 -0.0155427
-0.00198436 0.0993026 -0.0181812
-0.00211848 0.100556 -0.0182435
-0.00194292 0.100206 -0.018175
-0.00166477 0.0999671 -0.0181305
-0.00137566 0.0998401 -0.0181049
-0.00110845 0.0997635 -0.0180893
-0.000871335 0.099712 -0.0180793
-0.00066259 0.0996764 -0.0180729
-0.000476298 0.099653 -0.0180694
-0.00030423 0.0996406 -0.0180687
-0.000135883 0.0996402 -0.018071
4.27105e-05 0.0996555 -0.0180773
0.00025147 0.0996957 -0.0180892
0.000520028 0.0997803 -0.0181098
0.000890111 0.0999533 -0.0181445
0.00140078 0.100299 -0.0182015
0.00199492 0.100807 -0.0182806
0.00222549 0.0996044 -0.0182181
0.00111275 0.0789457 -0.0155743
-0.00331838 0.0394707 0.0548521
-0.00412745 0.0496513 0.0624788
-0.00367617 0.050278 0.0629493
-0.00295746 0.0501029 0.0630679
-0.00229265 0.0499836 0.063125
-0.00174832 0.0499201 0.0631563
-0.00131889 0.0498817 0.0631753
-0.000982571 0.049856 0.0631878
-0.000716741 0.0498382 0.063196
-0.000501484 0.0498265 0.0632008
-0.000319442 0.0498203 0.0632025
-0.000154341 0.0498201 0.0632009
1.16132e-05 0.0498278 0.0631952
0.000202527 0.0498478 0.0631833
0.000459198 0.0498902 0.0631612
0.00086424 0.0499766 0.0631205
0.00159953 0.0501495 0.063043
0.0029884 0.0504033 0.0628903
0.00477938 0.0498022 0.0623906
0.00238969 0.0394728 0.0548307
-1.66489e-05 0.000365884 -0.000830168
-2.94116e-05 0.000455203 -0.00104082
-3.52988e-05 0.000466111 -0.00107367
-3.60746e-05 0.000468968 -0.00108453
-3.33788e-05 0.000470252 -0.00109002
-2.83565e-05 0.000471018 -0.00109337
-2.17862e-05 0.000471579 -0.00109567
-1.4212e-05 0.000472051 -0.00109734
-6.04061e-06 0.00047247 -0.00109854
2.39078e-06 0.000472843 -0.00109929
1.07712e-05 0.000473156 -0.00109953
1.87905e-05 0.000473374 -0.00109914
2.61296e-05 0.000473438 -0.00109793
3.24597e-05 0.000473253 -0.00109565
3.74561e-05 0.000472666 -0.00109192
4.08308e-05 0.000471439 -0.00108625
4.23626e-05 0.000469196 -0.00107791
4.17286e-05 0.000465074 -0.00106513
3.66398e-05 0.000453285 -0.00103485
1.83199e-05 0.000364229 -0.000833821
-1.30739e-05 0.00103681 -0.00108454
-2.52747e-05 0.001323 -0.00140211
-3.27897e-05 0.00136021 -0.00145137
-3.56032e-05 0.00136861 -0.00146611
-3.44959e-05 0.00137192 -0.00147327
-3.032e-05 0.00137376 -0.00147761
-2.38166e-05 0.00137508 -0.00148058
-1.56001e-05 0.00137617 -0.00148274
-6.1926e-06 0.00137715 -0.00148428
3.93103e-06 0.00137803 -0.00148524
1.43043e-05 0.00137879 -0.00148554
2.44444e-05 0.00137932 -0.00148504
3.38353e-05 0.00137949 -0.00148351
4.19131e-05 0.00137903 -0.00148061
4.80659e-05 0.00137756 -0.00147587
5.16486e-05 0.00137442 -0.00146859
5.19993e-05 0.00136854 -0.00145772
4.83942e-05 0.00135692 -0.00144031
3.93265e-05 0.00131834 -0.00139414
1.96632e-05 0.00103613 -0.00108953
4.08903e-06 0.00190868 -0.00120611
-1.50946e-06 0.00248803 -0.00156047
-9.43079e-06 0.00256506 -0.00161558
-1.51183e-05 0.00258035 -0.00163224
-1.73945e-05 0.00258577 -0.00164039
-1.63894e-05 0.00258863 -0.00164533
-1.26027e-05 0.00259062 -0.0016487
-6.59862e-06 0.00259226 -0.00165113
1.0658e-06 0.00259376 -0.00165287
9.83269e-06 0.00259514 -0.00165394
1.91208e-05 0.00259635 -0.00165429
2.8299e-05 0.00259726 -0.00165373
3.66544e-05 0.00259762 -0.00165201
4.33601e-05 0.002597 -0.00164874
4.74347e-05 0.00259475 -0.00164338
4.76797e-05 0.00258982 -0.00163515
4.25705e-05 0.00258035 -0.00162282
3.04063e-05 0.00256015 -0.00160314
1.2667e-05 0.00248169 -0.00155142
6.33351e-06 0.00190998 -0.00121131
2.27072e-05 0.00293574 -0.00134884
2.50624e-05 0.00389936 -0.00173994
1.70259e-05 0.00402968 -0.00180049
8.22277e-06 0.00405259 -0.00181918
2.17238e-06 0.00405977 -0.00182847
-3.89628e-07 0.00406337 -0.00183412
3.18238e-07 0.0040658 -0.00183796
3.78461e-06 0.00406782 -0.00184073
9.40573e-06 0.0040697 -0.0018427
1.65269e-05 0.0040715 -0.00184392
2.44349e-05 0.00407315 -0.00184432
3.23256e-05 0.00407449 -0.0018437
3.926e-05 0.00407518 -0.00184176
4.41086e-05 0.00407465 -0.00183807
4.54728e-05 0.00407201 -0.001832
4.15485e-05 0.00406588 -0.00182265
2.99342e-05 0.00405363 -0.00180869
8.24082e-06 0.00402472 -0.00178668
-1.76893e-05 0.00389304 -0.00172985
-8.84466e-06 0.00293916 -0.00135404
3.95487e-05 0.00411158 -0.00152742
4.94947e-05 0.00555017 -0.00196485
4.13363e-05 0.00574816 -0.00203203
2.94761e-05 0.00577935 -0.00205306
1.97708e-05 0.00578779 -0.00206364
1.3827e-05 0.00579172 -0.00207009
1.16953e-05 0.00579428 -0.00207448
1.2898e-05 0.00579644 -0.00207763
1.67683e-05 0.00579854 -0.00207987
2.25428e-05 0.00580066 -0.00208128
2.93626e-05 0.00580275 -0.00208175
3.62372e-05 0.0058046 -0.00208109
4.19873e-05 0.00580582 -0.00207893
4.51686e-05 0.00580571 -0.00207477
4.39591e-05 0.00580322 -0.00206788
3.59751e-05 0.00579665 -0.00205725
1.80494e-05 0.00578265 -0.00204142
-1.25771e-05 0.00574484 -0.00201668
-4.53968e-05 0.00554538 -0.00195356
-2.26984e-05 0.00411699 -0.00153265
5.45185e-05 0.0054511 -0.00174451
7.12214e-05 0.0074586 -0.00223963
6.26902e-05 0.00773984 -0.00231503
4.77684e-05 0.00778014 -0.00233874
3.45505e-05 0.00778927 -0.00235075
2.54693e-05 0.00779304 -0.00235806
2.0814e-05 0.0077954 -0.00236302
2.01174e-05 0.00779745 -0.00236659
2.26345e-05 0.00779958 -0.00236915
2.74816e-05 0.00780193 -0.00237078
3.36456e-05 0.00780445 -0.00237138
3.99398e-05 0.00780693 -0.0023707
4.49352e-05 0.00780892 -0.00236834
4.68622e-05 0.00780965 -0.0023637
4.34699e-05 0.0078079 -0.00235594
3.1809e-05 0.00780172 -0.00234389
8.01162e-06 0.00778693 -0.00232591
-3.09075e-05 0.00773963 -0.00229795
-6.99169e-05 0.00745649 -0.00222694
-3.49585e-05 0.00545836 -0.00174994
6.82144e-05 0.00698082 -0.00200265
9.0809e-05 0.00965798 -0.00256804
8.14691e-05 0.0100393 -0.00265348
6.3316e-05 0.0100898 -0.00268027
4.65994e-05 0.010099 -0.0026938
3.45304e-05 0.0101021 -0.00270201
2.76017e-05 0.0101038 -0.00270756
2.53331e-05 0.0101055 -0.00271157
2.68869e-05 0.0101074 -0.00271447
3.12487e-05 0.0101099 -0.00271636
3.72427e-05 0.0101129 -0.00271714
4.3478e-05 0.0101161 -0.0027165
4.8259e-05 0.0101192 -0.002714
4.94674e-05 0.0101212 -0.00270891
4.4396e-05 0.0101209 -0.00270026
2.95018e-05 0.0101159 -0.00268668
1.99243e-07 0.0101012 -0.00266628
-4.67245e-05 0.0100435 -0.00263449
-9.1918e-05 0.00965933 -0.00255374
-4.5959e-05 0.00698978 -0.00200847
8.1225e-05 0.00873458 -0.00230588
0.000108877 0.0121925 -0.00295578
9.8107e-05 0.0126923 -0.00305338
7.63576e-05 0.0127541 -0.00308367
5.60013e-05 0.0127626 -0.0030988
4.09824e-05 0.0127644 -0.0031079
3.1958e-05 0.0127651 -0.00311402
2.84085e-05 0.012766 -0.00311846
2.93866e-05 0.0127676 -0.00312172
3.37377e-05 0.01277 -0.00312392
4.01153e-05 0.0127735 -0.00312494
4.69118e-05 0.0127776 -0.00312445
5.21437e-05 0.0127821 -0.0031219
5.33049e-05 0.012786 -0.00311646
4.71712e-05 0.0127879 -0.00310696
2.95227e-05 0.0127852 -0.00309178
-5.04335e-06 0.0127715 -0.00306868
-6.00793e-05 0.012702 -0.00303238
-0.000112053 0.012198 -0.0029397
-5.60267e-05 0.0087451 -0.00231232
9.39254e-05 0.0107524 -0.00266062
0.000125723 0.0151165 -0.00341185
0.00011265 0.0157546 -0.00352412
8.67184e-05 0.0158289 -0.00355834
6.24334e-05 0.015836 -0.0035751
4.44205e-05 0.0158357 -0.00358501
3.34494e-05 0.0158347 -0.00359163
2.89233e-05 0.0158343 -0.00359646
2.97636e-05 0.0158352 -0.00360007
3.46649e-05 0.0158375 -0.00360262
4.21041e-05 0.0158414 -0.00360397
5.02434e-05 0.0158467 -0.00360374
5.67856e-05 0.015853 -0.00360132
5.87839e-05 0.0158595 -0.00359571
5.24022e-05 0.0158645 -0.0035855
3.25968e-05 0.0158653 -0.00356872
-7.04736e-06 0.0158538 -0.00354267