# vtk DataFile Version 2.0 
Visualization 
ASCII 
DATASET STRUCTURED_GRID 
DIMENSIONS 21 21 11
POINTS 4851 float
-0.1 -0.1 -0.1
0 -0.1 -0.1
0.1 -0.1 -0.1
0.2 -0.1 -0.1
0.3 -0.1 -0.1
0.4 -0.1 -0.1
0.5 -0.1 -0.1
0.6 -0.1 -0.1
0.7 -0.1 -0.1
0.8 -0.1 -0.1
0.9 -0.1 -0.1
1 -0.1 -0.1
1.1 -0.1 -0.1
1.2 -0.1 -0.1
1.3 -0.1 -0.1
1.4 -0.1 -0.1
1.5 -0.1 -0.1
1.6 -0.1 -0.1
1.7 -0.1 -0.1
1.8 -0.1 -0.1
1.9 -0.1 -0.1
-0.1 0 -0.1
0 0 -0.1
0.1 0 -0.1
0.2 0 -0.1
0.3 0 -0.1
0.4 0 -0.1
0.5 0 -0.1
0.6 0 -0.1
0.7 0 -0.1
0.8 0 -0.1
0.9 0 -0.1
1 0 -0.1
1.1 0 -0.1
1.2 0 -0.1
1.3 0 -0.1
1.4 0 -0.1
1.5 0 -0.1
1.6 0 -0.1
1.7 0 -0.1
1.8 0 -0.1
1.9 0 -0.1
-0.1 0.1 -0.1
0 0.1 -0.1
0.1 0.1 -0.1
0.2 0.1 -0.1
0.3 0.1 -0.1
0.4 0.1 -0.1
0.5 0.1 -0.1
0.6 0.1 -0.1
0.7 0.1 -0.1
0.8 0.1 -0.1
0.9 0.1 -0.1
1 0.1 -0.1
1.1 0.1 -0.1
1.2 0.1 -0.1
1.3 0.1 -0.1
1.4 0.1 -0.1
1.5 0.1 -0.1
1.6 0.1 -0.1
1.7 0.1 -0.1
1.8 0.1 -0.1
1.9 0.1 -0.1
-0.1 0.2 -0.1
0 0.2 -0.1
0.1 0.2 -0.1
0.2 0.2 -0.1
0.3 0.2 -0.1
0.4 0.2 -0.1
0.5 0.2 -0.1
0.6 0.2 -0.1
0.7 0.2 -0.1
0.8 0.2 -0.1
0.9 0.2 -0.1
1 0.2 -0.1
1.1 0.2 -0.1
1.2 0.2 -0.1
1.3 0.2 -0.1
1.4 0.2 -0.1
1.5 0.2 -0.1
1.6 0.2 -0.1
1.7 0.2 -0.1
1.8 0.2 -0.1
1.9 0.2 -0.1
-0.1 0.3 -0.1
0 0.3 -0.1
0.1 0.3 -0.1
0.2 0.3 -0.1
0.3 0.3 -0.1
0.4 0.3 -0.1
0.5 0.3 -0.1
0.6 0.3 -0.1
0.7 0.3 -0.1
0.8 0.3 -0.1
0.9 0.3 -0.1
1 0.3 -0.1
1.1 0.3 -0.1
1.2 0.3 -0.1
1.3 0.3 -0.1
1.4 0.3 -0.1
1.5 0.3 -0.1
1.6 0.3 -0.1
1.7 0.3 -0.1
1.8 0.3 -0.1
1.9 0.3 -0.1
-0.1 0.4 -0.1
0 0.4 -0.1
0.1 0.4 -0.1
0.2 0.4 -0.1
0.3 0.4 -0.1
0.4 0.4 -0.1
0.5 0.4 -0.1
0.6 0.4 -0.1
0.7 0.4 -0.1
0.8 0.4 -0.1
0.9 0.4 -0.1
1 0.4 -0.1
1.1 0.4 -0.1
1.2 0.4 -0.1
1.3 0.4 -0.1
1.4 0.4 -0.1
1.5 0.4 -0.1
1.6 0.4 -0.1
1.7 0.4 -0.1
1.8 0.4 -0.1
1.9 0.4 -0.1
-0.1 0.5 -0.1
0 0.5 -0.1
0.1 0.5 -0.1
0.2 0.5 -0.1
0.3 0.5 -0.1
0.4 0.5 -0.1
0.5 0.5 -0.1
0.6 0.5 -0.1
0.7 0.5 -0.1
0.8 0.5 -0.1
0.9 0.5 -0.1
1 0.5 -0.1
1.1 0.5 -0.1
1.2 0.5 -0.1
1.3 0.5 -0.1
1.4 0.5 -0.1
1.5 0.5 -0.1
1.6 0.5 -0.1
1.7 0.5 -0.1
1.8 0.5 -0.1
1.9 0.5 -0.1
-0.1 0.6 -0.1
0 0.6 -0.1
0.1 0.6 -0.1
0.2 0.6 -0.1
0.3 0.6 -0.1
0.4 0.6 -0.1
0.5 0.6 -0.1
0.6 0.6 -0.1
0.7 0.6 -0.1
0.8 0.6 -0.1
0.9 0.6 -0.1
1 0.6 -0.1
1.1 0.6 -0.1
1.2 0.6 -0.1
1.3 0.6 -0.1
1.4 0.6 -0.1
1.5 0.6 -0.1
1.6 0.6 -0.1
1.7 0.6 -0.1
1.8 0.6 -0.1
1.9 0.6 -0.1
-0.1 0.7 -0.1
0 0.7 -0.1
0.1 0.7 -0.1
0.2 0.7 -0.1
0.3 0.7 -0.1
0.4 0.7 -0.1
0.5 0.7 -0.1
0.6 0.7 -0.1
0.7 0.7 -0.1
0.8 0.7 -0.1
0.9 0.7 -0.1
1 0.7 -0.1
1.1 0.7 -0.1
1.2 0.7 -0.1
1.3 0.7 -0.1
1.4 0.7 -0.1
1.5 0.7 -0.1
1.6 0.7 -0.1
1.7 0.7 -0.1
1.8 0.7 -0.1
1.9 0.7 -0.1
-0.1 0.8 -0.1
0 0.8 -0.1
0.1 0.8 -0.1
0.2 0.8 -0.1
0.3 0.8 -0.1
0.4 0.8 -0.1
0.5 0.8 -0.1
0.6 0.8 -0.1
0.7 0.8 -0.1
0.8 0.8 -0.1
0.9 0.8 -0.1
1 0.8 -0.1
1.1 0.8 -0.1
1.2 0.8 -0.1
1.3 0.8 -0.1
1.4 0.8 -0.1
1.5 0.8 -0.1
1.6 0.8 -0.1
1.7 0.8 -0.1
1.8 0.8 -0.1
1.9 0.8 -0.1
-0.1 0.9 -0.1
0 0.9 -0.1
0.1 0.9 -0.1
0.2 0.9 -0.1
0.3 0.9 -0.1
0.4 0.9 -0.1
0.5 0.9 -0.1
0.6 0.9 -0.1
0.7 0.9 -0.1
0.8 0.9 -0.1
0.9 0.9 -0.1
1 0.9 -0.1
1.1 0.9 -0.1
1.2 0.9 -0.1
1.3 0.9 -0.1
1.4 0.9 -0.1
1.5 0.9 -0.1
1.6 0.9 -0.1
1.7 0.9 -0.1
1.8 0.9 -0.1
1.9 0.9 -0.1
-0.1 1 -0.1
0 1 -0.1
0.1 1 -0.1
0.2 1 -0.1
0.3 1 -0.1
0.4 1 -0.1
0.5 1 -0.1
0.6 1 -0.1
0.7 1 -0.1
0.8 1 -0.1
0.9 1 -0.1
1 1 -0.1
1.1 1 -0.1
1.2 1 -0.1
1.3 1 -0.1
1.4 1 -0.1
1.5 1 -0.1
1.6 1 -0.1
1.7 1 -0.1
1.8 1 -0.1
1.9 1 -0.1
-0.1 1.1 -0.1
0 1.1 -0.1
0.1 1.1 -0.1
0.2 1.1 -0.1
0.3 1.1 -0.1
0.4 1.1 -0.1
0.5 1.1 -0.1
0.6 1.1 -0.1
0.7 1.1 -0.1
0.8 1.1 -0.1
0.9 1.1 -0.1
1 1.1 -0.1
1.1 1.1 -0.1
1.2 1.1 -0.1
1.3 1.1 -0.1
1.4 1.1 -0.1
1.5 1.1 -0.1
1.6 1.1 -0.1
1.7 1.1 -0.1
1.8 1.1 -0.1
1.9 1.1 -0.1
-0.1 1.2 -0.1
0 1.2 -0.1
0.1 1.2 -0.1
0.2 1.2 -0.1
0.3 1.2 -0.1
0.4 1.2 -0.1
0.5 1.2 -0.1
0.6 1.2 -0.1
0.7 1.2 -0.1
0.8 1.2 -0.1
0.9 1.2 -0.1
1 1.2 -0.1
1.1 1.2 -0.1
1.2 1.2 -0.1
1.3 1.2 -0.1
1.4 1.2 -0.1
1.5 1.2 -0.1
1.6 1.2 -0.1
1.7 1.2 -0.1
1.8 1.2 -0.1
1.9 1.2 -0.1
-0.1 1.3 -0.1
0 1.3 -0.1
0.1 1.3 -0.1
0.2 1.3 -0.1
0.3 1.3 -0.1
0.4 1.3 -0.1
0.5 1.3 -0.1
0.6 1.3 -0.1
0.7 1.3 -0.1
0.8 1.3 -0.1
0.9 1.3 -0.1
1 1.3 -0.1
1.1 1.3 -0.1
1.2 1.3 -0.1
1.3 1.3 -0.1
1.4 1.3 -0.1
1.5 1.3 -0.1
1.6 1.3 -0.1
1.7 1.3 -0.1
1.8 1.3 -0.1
1.9 1.3 -0.1
-0.1 1.4 -0.1
0 1.4 -0.1
0.1 1.4 -0.1
0.2 1.4 -0.1
0.3 1.4 -0.1
0.4 1.4 -0.1
0.5 1.4 -0.1
0.6 1.4 -0.1
0.7 1.4 -0.1
0.8 1.4 -0.1
0.9 1.4 -0.1
1 1.4 -0.1
1.1 1.4 -0.1
1.2 1.4 -0.1
1.3 1.4 -0.1
1.4 1.4 -0.1
1.5 1.4 -0.1
1.6 1.4 -0.1
1.7 1.4 -0.1
1.8 1.4 -0.1
1.9 1.4 -0.1
-0.1 1.5 -0.1
0 1.5 -0.1
0.1 1.5 -0.1
0.2 1.5 -0.1
0.3 1.5 -0.1
0.4 1.5 -0.1
0.5 1.5 -0.1
0.6 1.5 -0.1
0.7 1.5 -0.1
0.8 1.5 -0.1
0.9 1.5 -0.1
1 1.5 -0.1
1.1 1.5 -0.1
1.2 1.5 -0.1
1.3 1.5 -0.1
1.4 1.5 -0.1
1.5 1.5 -0.1
1.6 1.5 -0.1
1.7 1.5 -0.1
1.8 1.5 -0.1
1.9 1.5 -0.1
-0.1 1.6 -0.1
0 1.6 -0.1
0.1 1.6 -0.1
0.2 1.6 -0.1
0.3 1.6 -0.1
0.4 1.6 -0.1
0.5 1.6 -0.1
0.6 1.6 -0.1
0.7 1.6 -0.1
0.8 1.6 -0.1
0.9 1.6 -0.1
1 1.6 -0.1
1.1 1.6 -0.1
1.2 1.6 -0.1
1.3 1.6 -0.1
1.4 1.6 -0.1
1.5 1.6 -0.1
1.6 1.6 -0.1
1.7 1.6 -0.1
1.8 1.6 -0.1
1.9 1.6 -0.1
-0.1 1.7 -0.1
0 1.7 -0.1
0.1 1.7 -0.1
0.2 1.7 -0.1
0.3 1.7 -0.1
0.4 1.7 -0.1
0.5 1.7 -0.1
0.6 1.7 -0.1
0.7 1.7 -0.1
0.8 1.7 -0.1
0.9 1.7 -0.1
1 1.7 -0.1
1.1 1.7 -0.1
1.2 1.7 -0.1
1.3 1.7 -0.1
1.4 1.7 -0.1
1.5 1.7 -0.1
1.6 1.7 -0.1
1.7 1.7 -0.1
1.8 1.7 -0.1
1.9 1.7 -0.1
-0.1 1.8 -0.1
0 1.8 -0.1
0.1 1.8 -0.1
0.2 1.8 -0.1
0.3 1.8 -0.1
0.4 1.8 -0.1
0.5 1.8 -0.1
0.6 1.8 -0.1
0.7 1.8 -0.1
0.8 1.8 -0.1
0.9 1.8 -0.1
1 1.8 -0.1
1.1 1.8 -0.1
1.2 1.8 -0.1
1.3 1.8 -0.1
1.4 1.8 -0.1
1.5 1.8 -0.1
1.6 1.8 -0.1
1.7 1.8 -0.1
1.8 1.8 -0.1
1.9 1.8 -0.1
-0.1 1.9 -0.1
0 1.9 -0.1
0.1 1.9 -0.1
0.2 1.9 -0.1
0.3 1.9 -0.1
0.4 1.9 -0.1
0.5 1.9 -0.1
0.6 1.9 -0.1
0.7 1.9 -0.1
0.8 1.9 -0.1
0.9 1.9 -0.1
1 1.9 -0.1
1.1 1.9 -0.1
1.2 1.9 -0.1
1.3 1.9 -0.1
1.4 1.9 -0.1
1.5 1.9 -0.1
1.6 1.9 -0.1
1.7 1.9 -0.1
1.8 1.9 -0.1
1.9 1.9 -0.1
-0.1 -0.1 0
0 -0.1 0
0.1 -0.1 0
0.2 -0.1 0
0.3 -0.1 0
0.4 -0.1 0
0.5 -0.1 0
0.6 -0.1 0
0.7 -0.1 0
0.8 -0.1 0
0.9 -0.1 0
1 -0.1 0
1.1 -0.1 0
1.2 -0.1 0
1.3 -0.1 0
1.4 -0.1 0
1.5 -0.1 0
1.6 -0.1 0
1.7 -0.1 0
1.8 -0.1 0
1.9 -0.1 0
-0.1 0 0
0 0 0
0.1 0 0
0.2 0 0
0.3 0 0
0.4 0 0
0.5 0 0
0.6 0 0
0.7 0 0
0.8 0 0
0.9 0 0
1 0 0
1.1 0 0
1.2 0 0
1.3 0 0
1.4 0 0
1.5 0 0
1.6 0 0
1.7 0 0
1.8 0 0
1.9 0 0
-0.1 0.1 0
0 0.1 0
0.1 0.1 0
0.2 0.1 0
0.3 0.1 0
0.4 0.1 0
0.5 0.1 0
0.6 0.1 0
0.7 0.1 0
0.8 0.1 0
0.9 0.1 0
1 0.1 0
1.1 0.1 0
1.2 0.1 0
1.3 0.1 0
1.4 0.1 0
1.5 0.1 0
1.6 0.1 0
1.7 0.1 0
1.8 0.1 0
1.9 0.1 0
-0.1 0.2 0
0 0.2 0
0.1 0.2 0
0.2 0.2 0
0.3 0.2 0
0.4 0.2 0
0.5 0.2 0
0.6 0.2 0
0.7 0.2 0
0.8 0.2 0
0.9 0.2 0
1 0.2 0
1.1 0.2 0
1.2 0.2 0
1.3 0.2 0
1.4 0.2 0
1.5 0.2 0
1.6 0.2 0
1.7 0.2 0
1.8 0.2 0
1.9 0.2 0
-0.1 0.3 0
0 0.3 0
0.1 0.3 0
0.2 0.3 0
0.3 0.3 0
0.4 0.3 0
0.5 0.3 0
0.6 0.3 0
0.7 0.3 0
0.8 0.3 0
0.9 0.3 0
1 0.3 0
1.1 0.3 0
1.2 0.3 0
1.3 0.3 0
1.4 0.3 0
1.5 0.3 0
1.6 0.3 0
1.7 0.3 0
1.8 0.3 0
1.9 0.3 0
-0.1 0.4 0
0 0.4 0
0.1 0.4 0
0.2 0.4 0
0.3 0.4 0
0.4 0.4 0
0.5 0.4 0
0.6 0.4 0
0.7 0.4 0
0.8 0.4 0
0.9 0.4 0
1 0.4 0
1.1 0.4 0
1.2 0.4 0
1.3 0.4 0
1.4 0.4 0
1.5 0.4 0
1.6 0.4 0
1.7 0.4 0
1.8 0.4 0
1.9 0.4 0
-0.1 0.5 0
0 0.5 0
0.1 0.5 0
0.2 0.5 0
0.3 0.5 0
0.4 0.5 0
0.5 0.5 0
0.6 0.5 0
0.7 0.5 0
0.8 0.5 0
0.9 0.5 0
1 0.5 0
1.1 0.5 0
1.2 0.5 0
1.3 0.5 0
1.4 0.5 0
1.5 0.5 0
1.6 0.5 0
1.7 0.5 0
1.8 0.5 0
1.9 0.5 0
-0.1 0.6 0
0 0.6 0
0.1 0.6 0
0.2 0.6 0
0.3 0.6 0
0.4 0.6 0
0.5 0.6 0
0.6 0.6 0
0.7 0.6 0
0.8 0.6 0
0.9 0.6 0
1 0.6 0
1.1 0.6 0
1.2 0.6 0
1.3 0.6 0
1.4 0.6 0
1.5 0.6 0
1.6 0.6 0
1.7 0.6 0
1.8 0.6 0
1.9 0.6 0
-0.1 0.7 0
0 0.7 0
0.1 0.7 0
0.2 0.7 0
0.3 0.7 0
0.4 0.7 0
0.5 0.7 0
0.6 0.7 0
0.7 0.7 0
0.8 0.7 0
0.9 0.7 0
1 0.7 0
1.1 0.7 0
1.2 0.7 0
1.3 0.7 0
1.4 0.7 0
1.5 0.7 0
1.6 0.7 0
1.7 0.7 0
1.8 0.7 0
1.9 0.7 0
-0.1 0.8 0
0 0.8 0
0.1 0.8 0
0.2 0.8 0
0.3 0.8 0
0.4 0.8 0
0.5 0.8 0
0.6 0.8 0
0.7 0.8 0
0.8 0.8 0
0.9 0.8 0
1 0.8 0
1.1 0.8 0
1.2 0.8 0
1.3 0.8 0
1.4 0.8 0
1.5 0.8 0
1.6 0.8 0
1.7 0.8 0
1.8 0.8 0
1.9 0.8 0
-0.1 0.9 0
0 0.9 0
0.1 0.9 0
0.2 0.9 0
0.3 0.9 0
0.4 0.9 0
0.5 0.9 0
0.6 0.9 0
0.7 0.9 0
0.8 0.9 0
0.9 0.9 0
1 0.9 0
1.1 0.9 0
1.2 0.9 0
1.3 0.9 0
1.4 0.9 0
1.5 0.9 0
1.6 0.9 0
1.7 0.9 0
1.8 0.9 0
1.9 0.9 0
-0.1 1 0
0 1 0
0.1 1 0
0.2 1 0
0.3 1 0
0.4 1 0
0.5 1 0
0.6 1 0
0.7 1 0
0.8 1 0
0.9 1 0
1 1 0
1.1 1 0
1.2 1 0
1.3 1 0
1.4 1 0
1.5 1 0
1.6 1 0
1.7 1 0
1.8 1 0
1.9 1 0
-0.1 1.1 0
0 1.1 0
0.1 1.1 0
0.2 1.1 0
0.3 1.1 0
0.4 1.1 0
0.5 1.1 0
0.6 1.1 0
0.7 1.1 0
0.8 1.1 0
0.9 1.1 0
1 1.1 0
1.1 1.1 0
1.2 1.1 0
1.3 1.1 0
1.4 1.1 0
1.5 1.1 0
1.6 1.1 0
1.7 1.1 0
1.8 1.1 0
1.9 1.1 0
-0.1 1.2 0
0 1.2 0
0.1 1.2 0
0.2 1.2 0
0.3 1.2 0
0.4 1.2 0
0.5 1.2 0
0.6 1.2 0
0.7 1.2 0
0.8 1.2 0
0.9 1.2 0
1 1.2 0
1.1 1.2 0
1.2 1.2 0
1.3 1.2 0
1.4 1.2 0
1.5 1.2 0
1.6 1.2 0
1.7 1.2 0
1.8 1.2 0
1.9 1.2 0
-0.1 1.3 0
0 1.3 0
0.1 1.3 0
0.2 1.3 0
0.3 1.3 0
0.4 1.3 0
0.5 1.3 0
0.6 1.3 0
0.7 1.3 0
0.8 1.3 0
0.9 1.3 0
1 1.3 0
1.1 1.3 0
1.2 1.3 0
1.3 1.3 0
1.4 1.3 0
1.5 1.3 0
1.6 1.3 0
1.7 1.3 0
1.8 1.3 0
1.9 1.3 0
-0.1 1.4 0
0 1.4 0
0.1 1.4 0
0.2 1.4 0
0.3 1.4 0
0.4 1.4 0
0.5 1.4 0
0.6 1.4 0
0.7 1.4 0
0.8 1.4 0
0.9 1.4 0
1 1.4 0
1.1 1.4 0
1.2 1.4 0
1.3 1.4 0
1.4 1.4 0
1.5 1.4 0
1.6 1.4 0
1.7 1.4 0
1.8 1.4 0
1.9 1.4 0
-0.1 1.5 0
0 1.5 0
0.1 1.5 0
0.2 1.5 0
0.3 1.5 0
0.4 1.5 0
0.5 1.5 0
0.6 1.5 0
0.7 1.5 0
0.8 1.5 0
0.9 1.5 0
1 1.5 0
1.1 1.5 0
1.2 1.5 0
1.3 1.5 0
1.4 1.5 0
1.5 1.5 0
1.6 1.5 0
1.7 1.5 0
1.8 1.5 0
1.9 1.5 0
-0.1 1.6 0
0 1.6 0
0.1 1.6 0
0.2 1.6 0
0.3 1.6 0
0.4 1.6 0
0.5 1.6 0
0.6 1.6 0
0.7 1.6 0
0.8 1.6 0
0.9 1.6 0
1 1.6 0
1.1 1.6 0
1.2 1.6 0
1.3 1.6 0
1.4 1.6 0
1.5 1.6 0
1.6 1.6 0
1.7 1.6 0
1.8 1.6 0
1.9 1.6 0
-0.1 1.7 0
0 1.7 0
0.1 1.7 0
0.2 1.7 0
0.3 1.7 0
0.4 1.7 0
0.5 1.7 0
0.6 1.7 0
0.7 1.7 0
0.8 1.7 0
0.9 1.7 0
1 1.7 0
1.1 1.7 0
1.2 1.7 0
1.3 1.7 0
1.4 1.7 0
1.5 1.7 0
1.6 1.7 0
1.7 1.7 0
1.8 1.7 0
1.9 1.7 0
-0.1 1.8 0
0 1.8 0
0.1 1.8 0
0.2 1.8 0
0.3 1.8 0
0.4 1.8 0
0.5 1.8 0
0.6 1.8 0
0.7 1.8 0
0.8 1.8 0
0.9 1.8 0
1 1.8 0
1.1 1.8 0
1.2 1.8 0
1.3 1.8 0
1.4 1.8 0
1.5 1.8 0
1.6 1.8 0
1.7 1.8 0
1.8 1.8 0
1.9 1.8 0
-0.1 1.9 0
0 1.9 0
0.1 1.9 0
0.2 1.9 0
0.3 1.9 0
0.4 1.9 0
0.5 1.9 0
0.6 1.9 0
0.7 1.9 0
0.8 1.9 0
0.9 1.9 0
1 1.9 0
1.1 1.9 0
1.2 1.9 0
1.3 1.9 0
1.4 1.9 0
1.5 1.9 0
1.6 1.9 0
1.7 1.9 0
1.8 1.9 0
[...]
CELL_DATA 4000
VECTORS velocity double 
-2.79172e-05 0.000265173 -0.000237256
-3.06111e-05 0.00031128 -0.000267983
-2.70963e-05 0.000316775 -0.000277018
-1.65595e-05 0.000317742 -0.00028266
5.31018e-07 0.000318081 -0.000286111
2.24519e-05 0.000318592 -0.000288189
4.70787e-05 0.000319449 -0.000289372
7.22774e-05 0.00032066 -0.00028985
9.598e-05 0.000322166 -0.000289653
0.000116198 0.000323887 -0.000288708
0.000131014 0.000325719 -0.000286909
0.000138647 0.000327505 -0.000284175
0.000137613 0.000329005 -0.000280534
0.00012698 0.000329914 -0.00027611
0.000106635 0.000329901 -0.000271119
7.74999e-05 0.000328636 -0.000265873
4.17166e-05 0.000325808 -0.000260729
2.75272e-06 0.000321118 -0.000256027
-3.47693e-05 0.000313234 -0.000251125
-1.73847e-05 0.000274587 -0.000222706
-1.57671e-05 0.000771025 -0.00030298
-1.85565e-05 0.00090323 -0.000352098
-1.75434e-05 0.000919248 -0.000365853
-8.85329e-06 0.000922237 -0.00037368
8.02803e-06 0.000922913 -0.000378251
3.16172e-05 0.000923626 -0.000380848
5.96978e-05 0.000925028 -0.000382181
8.98523e-05 0.000927264 -0.000382542
0.000119615 0.000930303 -0.000381992
0.000146476 0.000934006 -0.000380439
0.000167875 0.000938129 -0.000377763
0.000181295 0.000942278 -0.000373877
0.000184444 0.000945864 -0.000368832
0.000175596 0.000948149 -0.000362802
0.000153948 0.000948263 -0.000356016
0.000119942 0.000945316 -0.000348877
7.55283e-05 0.000938454 -0.000341922
2.44507e-05 0.000926692 -0.000335617
-2.62654e-05 0.000904604 -0.000329049
-1.31327e-05 0.00078031 -0.000289854
-2.0741e-06 0.00144788 -0.0003772
-2.24202e-07 0.00171684 -0.00043963
7.19219e-07 0.00175033 -0.000457045
8.03764e-06 0.00175693 -0.000466878
2.36501e-05 0.00175831 -0.000472536
4.65414e-05 0.00175908 -0.000475652
7.46082e-05 0.00176066 -0.000477138
0.00010542 0.00176345 -0.00047739
0.000136407 0.00176752 -0.000476496
0.000164868 0.0017727 -0.000474359
0.000187935 0.00177862 -0.000470848
0.000202684 0.00178465 -0.000465873
0.00020636 0.00178985 -0.000459465
0.000196702 0.00179297 -0.000451793
0.000172397 0.00179259 -0.000443175
0.000133448 0.00178718 -0.000434115
8.14914e-05 0.00177523 -0.000425267
2.03053e-05 0.00175474 -0.000417354
-4.03406e-05 0.00171261 -0.000409541
-2.01703e-05 0.00145401 -0.000362208
1.41757e-05 0.00228689 -0.000470667
2.30396e-05 0.00275016 -0.000547663
2.47805e-05 0.00280991 -0.000568711
3.07068e-05 0.00282219 -0.000580709
4.46295e-05 0.00282491 -0.000587605
6.62424e-05 0.00282578 -0.000591352
9.36527e-05 0.00282721 -0.000593075
0.000124437 0.00283001 -0.000593276
0.000155934 0.00283439 -0.000592087
0.000185224 0.00284019 -0.000589404
0.000209123 0.00284696 -0.000585072
0.000224296 0.00285386 -0.000578952
0.000227435 0.00285963 -0.00057106
0.000215723 0.00286256 -0.000561553
0.000187286 0.00286062 -0.000550868
0.000141634 0.00285158 -0.000539617
8.01444e-05 0.00283332 -0.000528636
7.13001e-06 0.00280244 -0.00051895
-6.34069e-05 0.00273319 -0.000509855
-3.17035e-05 0.00228558 -0.000452506
3.37307e-05 0.00329428 -0.000577474
5.21479e-05 0.00401612 -0.000670115
5.5609e-05 0.00411284 -0.000694634
6.00289e-05 0.00413332 -0.000708828
7.16586e-05 0.00413824 -0.000717054
9.11784e-05 0.00413935 -0.000721512
0.000117048 0.00414037 -0.000723544
0.000146923 0.00414263 -0.000723777
0.000178061 0.00414653 -0.000722382
0.000207362 0.00415197 -0.000719231
0.000231316 0.00415845 -0.000714136
0.000246145 0.00416501 -0.000706885
0.000247987 0.00417006 -0.000697501
0.000233355 0.00417149 -0.000686139
0.000199711 0.00416667 -0.000673303
0.000146086 0.00415274 -0.000659694
7.37202e-05 0.00412684 -0.000646419
-1.22008e-05 0.0040836 -0.000634951
-9.23791e-05 0.00397831 -0.000624783
-4.61896e-05 0.00328063 -0.000556123
5.71092e-05 0.00447725 -0.000692192
8.8017e-05 0.00552819 -0.000800687
9.43444e-05 0.00567443 -0.000828243
9.72409e-05 0.00570607 -0.000844518
0.000105918 0.00571418 -0.000854094
0.000122375 0.00571581 -0.000859322
0.000145587 0.00571626 -0.000861743
0.000173369 0.0057175 -0.00086211
0.000202954 0.00572017 -0.000860642
0.000231092 0.00572428 -0.000857162
0.000253994 0.00572937 -0.000851439
0.000267439 0.00573434 -0.000843215
0.000266971 0.0057374 -0.000832472
0.000248395 0.00573603 -0.000819314
0.00020847 0.00572704 -0.000804338
0.000145706 0.00570694 -0.000788372
6.12364e-05 0.00567208 -0.000772794
-3.85701e-05 0.00561414 -0.000759628
-0.000127995 0.00546204 -0.000748701
-6.39977e-05 0.00444697 -0.000668029
8.46374e-05 0.00583778 -0.000809493
0.000131274 0.00729375 -0.000933095
0.000141836 0.0075037 -0.000962952
0.000143266 0.00754971 -0.000981029
0.000148345 0.00756208 -0.000991867
0.000160718 0.00756458 -0.000997876
0.000180054 0.00756442 -0.00100077
0.000204409 0.00756429 -0.00100142
0.000231066 0.00756515 -0.00100006
0.000256687 0.00756719 -0.000996466
0.00027724 0.00756998 -0.000990373
0.000288076 0.00757241 -0.000981451
0.000284146 0.00757245 -0.000969599
0.000260495 0.00756726 -0.000954878
0.000213132 0.00755309 -0.00093789
0.00013998 0.00752581 -0.000919639
4.20644e-05 0.00748066 -0.000901896
-7.26854e-05 0.00740532 -0.000887284
-0.000170943 0.00719381 -0.000876007
-8.54717e-05 0.00578805 -0.000783189
0.000116317 0.00736993 -0.000924036
0.000181999 0.00931085 -0.00106109
0.000198241 0.00959987 -0.00109217
0.000198341 0.00966349 -0.00111155
0.000199226 0.00968109 -0.00112346
0.000206537 0.0096848 -0.00113022
0.0002208 0.00968409 -0.00113367
0.000240423 0.00968247 -0.00113475
0.000262812 0.00968126 -0.00113371
0.00028459 0.00968087 -0.00113032
0.000301534 0.00968093 -0.00112423
0.000308572 0.00968035 -0.00111502
0.000300054 0.00967693 -0.00110244
0.000270239 0.00966743 -0.0010866
0.000214288 0.00964763 -0.001068
0.000129376 0.00961254 -0.00104783
1.6526e-05 0.00955612 -0.00102823
-0.00011435 0.00946055 -0.00101249
-0.000221204 0.00917523 -0.00100138
-0.000110602 0.0073004 -0.000896687
0.000151712 0.00905952 -0.00103102
0.000239442 0.0115674 -0.00117912
0.000262662 0.0119514 -0.00121002
0.000261559 0.0120355 -0.00122997
0.000257737 0.0120589 -0.00124264
0.000259154 0.0120641 -0.00125005
0.000267357 0.012063 -0.00125408
0.000281175 0.01206 -0.00125573
0.000298218 0.0120568 -0.00125527
0.000315097 0.0120541 -0.00125244
0.000327471 0.0120517 -0.00124678
0.000329848 0.0120484 -0.00123785
0.000315912 0.0120419 -0.00122523
0.000279126 0.0120287 -0.00120887
0.000213609 0.0120038 -0.00118928
0.000115664 0.0119613 -0.00116779
-1.3615e-05 0.0118935 -0.00114681
-0.000162022 0.0117751 -0.00113044
-0.000277497 0.0113999 -0.00112013
-0.000138748 0.00897355 -0.00100428
0.000189745 0.0108862 -0.00112743
0.000301634 0.0140431 -0.00128376
0.00033265 0.0145377 -0.00131284
0.00033032 0.0146442 -0.00133243
0.000321408 0.0146733 -0.00134534
0.000316387 0.0146799 -0.00135318
0.000317911 0.0146785 -0.00135775
0.000325301 0.0146745 -0.00136007
0.000336436 0.0146699 -0.00136039
0.000347914 0.0146656 -0.00135855
0.000355364 0.0146615 -0.0013538
0.000352914 0.0146567 -0.00134576
0.00033352 0.0146488 -0.00133391
0.000289688 0.0146339 -0.00131793
0.000214241 0.0146063 -0.00129831
0.000102481 0.0145586 -0.00127638
-4.46026e-05 0.0144807 -0.00125479
-0.000212292 0.0143376 -0.0012385
-0.000337096 0.0138553 -0.00122948
-0.000168548 0.0107917 -0.00110349
0.000228539 0.0128291 -0.00121395
0.000364976 0.0167155 -0.00137604
0.000403588 0.0173347 -0.00140154
0.000399677 0.0174636 -0.00141964
0.000385406 0.0174973 -0.00143214
0.000373799 0.0175045 -0.00144004
0.000368618 0.0175028 -0.00144496
0.00036963 0.0174982 -0.00144803
0.000375019 0.017493 -0.00144926
0.000381484 0.0174882 -0.00144875
0.000384632 0.0174842 -0.00144555
0.000378269 0.0174802 -0.00143914
0.000354669 0.0174739 -0.00142893
0.000305065 0.0174612 -0.00141446
0.000220707 0.0174353 -0.00139606
9.54683e-05 0.0173873 -0.00137485
-7.03137e-05 0.0173036 -0.00135369
-0.000259287 0.0171355 -0.00133831
-0.000395472 0.0165283 -0.00133113
-0.000197736 0.0127389 -0.00119525
0.000265182 0.0148772 -0.00129776
0.000423643 0.0195711 -0.00146476
0.000467861 0.0203258 -0.00148507
0.000461362 0.0204745 -0.0015004
0.000441579 0.0205096 -0.00151165
0.000423761 0.020516 -0.00151915
0.000412558 0.0205136 -0.00152417
0.000408103 0.0205088 -0.00152793
0.000408855 0.0205039 -0.00153014
0.000411803 0.0205001 -0.00153099
0.000412621 0.0204982 -0.0015297
0.000404848 0.0204979 -0.00152566
0.000380156 0.0204974 -0.00151801
0.000328313 0.0204927 -0.00150626
0.000238563 0.0204762 -0.00149043
0.000102371 0.0204367 -0.00147137
-8.17084e-05 0.0203554 -0.00145199
-0.000294081 0.0201655 -0.00143844
-0.000445563 0.0194162 -0.00143349
-0.000222782 0.0148092 -0.00128676
0.000295235 0.0170471 -0.00139694
0.000468536 0.0226253 -0.00157168
0.000513575 0.0235211 -0.00158566
0.000502456 0.0236826 -0.0015969
0.000477054 0.0237136 -0.00160595
0.000454026 0.0237165 -0.00161248
0.000438348 0.0237126 -0.00161717
0.00043035 0.0237074 -0.00162128
0.000428645 0.0237033 -0.00162457
0.000430724 0.0237017 -0.00162687
0.000432551 0.023704 -0.00162764
0.000427826 0.0237106 -0.0016263
0.000407724 0.023721 -0.00162197
0.000360525 0.0237318 -0.00161405
0.000272804 0.0237351 -0.00160223
0.000132075 0.0237177 -0.00158697
-6.68649e-05 0.0236532 -0.00157102
-0.000304 0.0234509 -0.00156036
-0.000477401 0.0225448 -0.00155755
-0.0002387 0.0170227 -0.00139556
0.000311788 0.0194123 -0.00154815
0.000485471 0.0259554 -0.00174045
0.000522353 0.0269889 -0.00174783
0.000503136 0.0271499 -0.00175373
0.000472194 0.0271686 -0.00175954
0.000445841 0.0271639 -0.00176441
0.000428146 0.0271568 -0.00176857
0.000419505 0.027151 -0.00177235
0.000418662 0.0271478 -0.00177622
0.000423743 0.0271489 -0.00177971
0.000431379 0.0271564 -0.00178244
0.000436022 0.0271723 -0.00178387
0.000428931 0.0271978 -0.00178324
0.000397267 0.0272316 -0.00177994
0.000324481 0.0272673 -0.00177333
0.00019218 0.0272901 -0.00176357
-1.20301e-05 0.0272652 -0.00175272
-0.000272364 0.0270704 -0.00174609
-0.000476784 0.0260003 -0.00174472
-0.000238392 0.0194538 -0.00155669
0.000303286 0.0221579 -0.00182233
0.000451297 0.0297594 -0.00205496
0.000465052 0.0309124 -0.00205691
0.000432798 0.0310511 -0.00205637
0.000396937 0.0310458 -0.00205799
0.000370455 0.0310286 -0.00206002
0.000354843 0.0310161 -0.00206303
0.000349625 0.0310084 -0.00206639
0.000353955 0.0310053 -0.0020702
0.000366709 0.0310083 -0.00207431
0.000385827 0.0310204 -0.00207843
0.00040737 0.0310455 -0.00208219
0.00042387 0.0310877 -0.00208505
0.000422717 0.0311495 -0.00208648
0.000384675 0.031229 -0.00208575
0.000283916 0.0313131 -0.00208278
9.55381e-05 0.0313602 -0.00207865
-0.000178285 0.0312094 -0.00207723
-0.000424099 0.0299845 -0.00207518
-0.00021205 0.022281 -0.0018386
0.000247904 0.0256896 -0.00236288
0.000325141 0.0344716 -0.00268303
0.000292986 0.0357003 -0.00268283
0.000242047 0.0357838 -0.00267488
0.000203756 0.0357404 -0.00267173
0.000182284 0.0357058 -0.00267059
0.000174804 0.0356857 -0.00267133
0.000179088 0.0356744 -0.0026734
0.000194284 0.0356694 -0.00267648
0.00022032 0.035672 -0.00268033
0.000257008 0.0356858 -0.00268492
0.000303151 0.0357166 -0.00268998
0.000354504 0.0357719 -0.00269542
0.000401515 0.0358603 -0.00270079
0.000424996 0.0359879 -0.00270572
0.000392649 0.0361509 -0.00270994
0.000261362 0.036309 -0.00271369
3.38189e-06 0.0362622 -0.00271866
-0.000289787 0.0349256 -0.00271256
-0.000144894 0.0258923 -0.00238083
9.87569e-05 0.0308848 -0.00348412
2.79613e-05 0.0410158 -0.00398736
-8.13863e-05 0.042232 -0.00399172
-0.000154372 0.0422171 -0.0039758
-0.00018739 0.0421231 -0.00396642
-0.000193325 0.0420677 -0.00396152
-0.000182293 0.0420381 -0.00395959
-0.000158789 0.042021 -0.00395954
-0.000123854 0.0420114 -0.00396088
-7.66464e-05 0.0420099 -0.00396348
-1.50912e-05 0.0420202 -0.00396727
6.31178e-05 0.0420495 -0.0039723
0.000159416 0.042108 -0.00397872
0.000271526 0.0422108 -0.00398647
0.000387297 0.0423759 -0.0039957
0.000475386 0.0426185 -0.00400616
0.000474568 0.0429188 -0.00401789
0.000305013 0.0430602 -0.00402974
-1.87851e-05 0.0417219 -0.004014
-9.39257e-06 0.0311293 -0.00349439
-0.000258361 0.0396671 -0.00588229
-0.000606904 0.0513316 -0.00674359
-0.000825035 0.0523772 -0.00676352
-0.000908928 0.0522217 -0.00674186
-0.000913821 0.0520752 -0.00672633
-0.000879679 0.0520005 -0.00671683
-0.000826313 0.051961 -0.0067113
-0.000761349 0.051936 -0.00670831
-0.000686479 0.051919 -0.00670709
-0.000600398 0.0519095 -0.00670749
-0.000499409 0.0519109 -0.00670943
-0.000377642 0.0519297 -0.00671318
-0.000226697 0.0519771 -0.00671902
-3.70823e-05 0.0520714 -0.00672736
0.000197138 0.0522413 -0.00673863
0.000464915 0.0525269 -0.00675305
0.000709434 0.0529558 -0.00677055
0.000790528 0.0533601 -0.00678754
0.000533987 0.0522433 -0.00675421
0.000266993 0.0398733 -0.00587849
-0.00112562 0.0547788 -0.00955141
-0.00193049 0.0675333 -0.0107219
-0.00222961 0.0681855 -0.0107667
-0.00224167 0.0679048 -0.0107457
-0.00213238 0.0677337 -0.0107259
-0.00197898 0.0676522 -0.0107118
-0.00181243 0.0676069 -0.0107025
-0.00164344 0.0675762 -0.0106962
-0.00147488 0.0675531 -0.0106923
-0.00130549 0.0675369 -0.0106904
-0.0011309 0.0675291 -0.0106906
-0.000942733 0.0675342 -0.0106929
-0.000726926 0.0675603 -0.010698
-0.000461123 0.0676226 -0.0107065
-0.000112254 0.0677495 -0.0107192
0.000359281 0.0679924 -0.010736
0.00097018 0.0684271 -0.0107555
0.00160708 0.0690209 -0.0107698
0.00179002 0.0684273 -0.0107159
0.00089501 0.054886 -0.00954608
-0.00301766 0.0273894 0.0380518
-0.00406032 0.0337667 0.0415187
-0.00399903 0.0340927 0.041522
-0.00358361 0.0339524 0.0415173
-0.00310701 0.0338668 0.0415349
-0.00266034 0.0338261 0.0415511
-0.0022654 0.0338035 0.0415629
-0.00192253 0.0337881 0.0415707
-0.00162516 0.0337766 0.0415759
-0.00136479 0.0337684 0.0415787
-0.00113155 0.0337646 0.041579
-0.000913501 0.0337671 0.0415763
-0.000694063 0.0337801 0.0415695
-0.000446575 0.0338113 0.0415573
-0.000123376 0.0338747 0.0415375
0.000366151 0.0339962 0.0415092
0.00119061 0.0342135 0.0414776
0.00258142 0.0345104 0.04147
0.00423024 0.0342136 0.0414597
0.00211512 0.027443 0.0380314
-3.38413e-05 0.000258221 -0.000525734
-4.60996e-05 0.000304289 -0.00062164
-4.84668e-05 0.000307823 -0.000646487
-4.02714e-05 0.000307544 -0.000660801
-2.26749e-05 0.000307257 -0.00066987
2.10623e-06 0.000307565 -0.000675813
3.16105e-05 0.000308509 -0.000679728
6.34146e-05 0.000310022 -0.000682007
9.51622e-05 0.00031202 -0.000682607
0.000124498 0.000314425 -0.000681252
0.000149034 0.000317123 -0.0006776
0.00016638 0.000319934 -0.000671412
0.000174338 0.000322571 -0.000662677
0.000171186 0.000324654 -0.000651624
0.000156049 0.000325827 -0.000638782
0.000129239 0.000325662 -0.000624916
9.25204e-05 0.000323662 -0.000610993
4.92194e-05 0.000319342 -0.000597935
3.95326e-06 0.000310638 -0.000583306
1.97663e-06 0.000265624 -0.000503592
-2.68811e-05 0.000771307 -0.000722201
-4.22988e-05 0.000916527 -0.000875856
-4.91899e-05 0.000930368 -0.000914725
-4.41757e-05 0.000930759 -0.000935204
-2.74078e-05 0.000929906 -0.000947444
-7.70177e-07 0.000929992 -0.000955001
3.32961e-05 0.000931436 -0.000959597
7.21786e-05 0.000934245 -0.000961885
0.000113156 0.000938331 -0.000961882
0.000153291 0.000943543 -0.000959258
0.000189413 0.000949629 -0.000953586
0.000218146 0.00095614 -0.00094456
0.000236118 0.000962395 -0.000932178
0.000240435 0.000967523 -0.000916706
0.000229062 0.00097048 -0.000898765
0.000201276 0.000970105 -0.000879347
0.000158127 0.000965151 -0.000859677
0.000102558 0.000953985 -0.000840784
3.9988e-05 0.000928722 -0.000817976
1.9994e-05 0.00078162 -0.000695381
-1.53284e-05 0.00149264 -0.000934337
-2.75846e-05 0.00180601 -0.00113438
-3.51243e-05 0.00184013 -0.00118527
-3.14219e-05 0.00184318 -0.00121147
-1.54762e-05 0.0018421 -0.00122661
1.11722e-05 0.00184172 -0.00123552
4.61685e-05 0.00184319 -0.00124054
8.69198e-05 0.00184675 -0.00124262
0.000130641 0.00185237 -0.00124185
0.00017423 0.00185986 -0.00123788
0.000214198 0.00186884 -0.00123021
0.000246711 0.00187863 -0.00121849
0.00026784 0.00188813 -0.0012026
0.000273944 0.00189589 -0.00118281
0.000262216 0.00190008 -0.00115988
0.000231171 0.00189867 -0.00113496
0.00018107 0.00188945 -0.00110949
0.000114316 0.00186912 -0.00108474
3.81127e-05 0.00181859 -0.00105486
1.90564e-05 0.00150344 -0.000898311
-1.39809e-08 0.00242725 -0.00119926
-6.1805e-06 0.00299157 -0.00145236
-1.31336e-05 0.00305935 -0.00151618
-1.03684e-05 0.00306801 -0.00154876
4.7398e-06 0.00306746 -0.00156723
3.11895e-05 0.0030666 -0.00157773
6.67779e-05 0.00306767 -0.00158331
0.000108911 0.0030713 -0.00158526
0.000154743 0.00307759 -0.00158376
0.000200972 0.00308636 -0.00157843
0.000243812 0.00309717 -0.00156868
0.000278969 0.0031091 -0.00155401
0.000301874 0.00312068 -0.00153423
0.00030809 0.00312987 -0.00150958
0.000293969 0.00313402 -0.00148093
0.000257178 0.00313016 -0.00144965
0.000197227 0.00311501 -0.00141754
0.000116406 0.0030828 -0.00138621
2.55937e-05 0.0029955 -0.00134875
1.27968e-05 0.00243318 -0.00115203
1.96722e-05 0.00359324 -0.00150381
2.28051e-05 0.00450561 -0.00181587
1.77515e-05 0.00462427 -0.00189321
1.97376e-05 0.00464241 -0.00193254
3.36163e-05 0.00464355 -0.00195462
5.9195e-05 0.00464237 -0.00196692
9.45537e-05 0.00464268 -0.00197323
0.000137181 0.00464564 -0.00197519
0.000184197 0.00465155 -0.00197309
0.00023216 0.00466035 -0.00196652
0.000277 0.00467154 -0.00195476
0.000313921 0.00468406 -0.00193713
0.000337699 0.00469609 -0.00191332
0.000342997 0.00470504 -0.00188357
0.000325223 0.00470744 -0.00184881
0.000281137 0.00469938 -0.00181057
0.000209478 0.00467632 -0.00177122
0.000112623 0.00462879 -0.00173299
6.55142e-06 0.00448982 -0.00168773
3.27571e-06 0.00358777 -0.00144531
4.45653e-05 0.00500877 -0.00183463
6.08821e-05 0.00638044 -0.00220903
5.9413e-05 0.00657114 -0.00229977
6.09216e-05 0.00660366 -0.00234589
7.30894e-05 0.00660801 -0.00237172
9.68901e-05 0.00660686 -0.00238596
0.000130848 0.00660613 -0.00239315
0.000172612 0.00660771 -0.00239536
0.000219366 0.00661218 -0.00239295
0.000267588 0.00661964 -0.00238542
0.000312968 0.00662965 -0.0023719
0.00035025 0.00664103 -0.00235159
0.000373545 0.00665168 -0.00232394
0.000376577 0.00665853 -0.00228912
0.000353732 0.00665733 -0.00224812
0.000300748 0.00664315 -0.00220273
0.000215517 0.0066099 -0.00215588
0.000100741 0.00654278 -0.00211062
-2.09921e-05 0.00633363 -0.00205755
-1.0496e-05 0.00498561 -0.0017656
7.53804e-05 0.00668563 -0.00217799
0.000109356 0.00864111 -0.00261538
0.000113534 0.00892891 -0.00271858
0.000115032 0.00898158 -0.00277107
0.000125044 0.00899094 -0.00280053
0.000146069 0.00899036 -0.00281676
0.00017727 0.00898846 -0.00282504
0.000216566 0.00898807 -0.00282779
0.0002613 0.00899017 -0.00282545
0.000307949 0.00899509 -0.00281746
0.000352027 0.00900246 -0.00280276
0.000387885 0.00901109 -0.00278037
0.000408962 0.00901865 -0.00274944
0.000408082 0.00902157 -0.00271001
0.000378503 0.00901492 -0.00266303
0.000314722 0.00899262 -0.00261064
0.000213792 0.00894672 -0.00255636
7.90745e-05 0.00885495 -0.00250417
-5.87492e-05 0.00855322 -0.0024436
-2.93746e-05 0.00663968 -0.00210002
0.000112434 0.00862566 -0.00251936
0.000168909 0.0113009 -0.00301749
0.000181044 0.0117143 -0.00313125
0.000183127 0.0117936 -0.00318915
0.000190593 0.0118099 -0.00322182
0.00020786 0.0118105 -0.00323997
0.000234923 0.0118075 -0.00324948
0.0002701 0.0118048 -0.0032531
0.000310974 0.011804 -0.00325136
0.00035411 0.0118055 -0.00324365
0.000394917 0.0118092 -0.00322868
0.000427445 0.0118138 -0.00320519
0.000444423 0.011817 -0.00317209
0.000437786 0.0118146 -0.00312912
0.000399545 0.011801 -0.0030771
0.000322864 0.0117688 -0.00301842
0.000203955 0.0117079 -0.0029572
4.7094e-05 0.0115858 -0.00289857
-0.0001072 0.0111651 -0.00283104
-5.35998e-05 0.00855423 -0.00243518
0.000155474 0.0108189 -0.00284453
0.000239181 0.0143584 -0.00339844
0.000261549 0.0149288 -0.00351987
0.000264835 0.0150413 -0.00358157
0.000269436 0.0150663 -0.00361665
0.000282073 0.0150688 -0.0036364
0.00030376 0.015065 -0.00364717
0.000333339 0.01506 -0.00365199
0.000368691 0.0150561 -0.00365146
0.000406577 0.0150539 -0.00364494
0.000442326 0.0150536 -0.0036309
0.000469747 0.0150539 -0.00360771
0.000480962 0.0150522 -0.003574