# vtk DataFile Version 2.0 
Visualization 
ASCII 
DATASET STRUCTURED_GRID 
DIMENSIONS 21 21 11
POINTS 4851 float
-0.1 -0.1 0.9
0 -0.1 0.9
0.1 -0.1 0.9
0.2 -0.1 0.9
0.3 -0.1 0.9
0.4 -0.1 0.9
0.5 -0.1 0.9
0.6 -0.1 0.9
0.7 -0.1 0.9
0.8 -0.1 0.9
0.9 -0.1 0.9
1 -0.1 0.9
1.1 -0.1 0.9
1.2 -0.1 0.9
1.3 -0.1 0.9
1.4 -0.1 0.9
1.5 -0.1 0.9
1.6 -0.1 0.9
1.7 -0.1 0.9
1.8 -0.1 0.9
1.9 -0.1 0.9
-0.1 0 0.9
0 0 0.9
0.1 0 0.9
0.2 0 0.9
0.3 0 0.9
0.4 0 0.9
0.5 0 0.9
0.6 0 0.9
0.7 0 0.9
0.8 0 0.9
0.9 0 0.9
1 0 0.9
1.1 0 0.9
1.2 0 0.9
1.3 0 0.9
1.4 0 0.9
1.5 0 0.9
1.6 0 0.9
1.7 0 0.9
1.8 0 0.9
1.9 0 0.9
-0.1 0.1 0.9
0 0.1 0.9
0.1 0.1 0.9
0.2 0.1 0.9
0.3 0.1 0.9
0.4 0.1 0.9
0.5 0.1 0.9
0.6 0.1 0.9
0.7 0.1 0.9
0.8 0.1 0.9
0.9 0.1 0.9
1 0.1 0.9
1.1 0.1 0.9
1.2 0.1 0.9
1.3 0.1 0.9
1.4 0.1 0.9
1.5 0.1 0.9
1.6 0.1 0.9
1.7 0.1 0.9
1.8 0.1 0.9
1.9 0.1 0.9
-0.1 0.2 0.9
0 0.2 0.9
0.1 0.2 0.9
0.2 0.2 0.9
0.3 0.2 0.9
0.4 0.2 0.9
0.5 0.2 0.9
0.6 0.2 0.9
0.7 0.2 0.9
0.8 0.2 0.9
0.9 0.2 0.9
1 0.2 0.9
1.1 0.2 0.9
1.2 0.2 0.9
1.3 0.2 0.9
1.4 0.2 0.9
1.5 0.2 0.9
1.6 0.2 0.9
1.7 0.2 0.9
1.8 0.2 0.9
1.9 0.2 0.9
-0.1 0.3 0.9
0 0.3 0.9
0.1 0.3 0.9
0.2 0.3 0.9
0.3 0.3 0.9
0.4 0.3 0.9
0.5 0.3 0.9
0.6 0.3 0.9
0.7 0.3 0.9
0.8 0.3 0.9
0.9 0.3 0.9
1 0.3 0.9
1.1 0.3 0.9
1.2 0.3 0.9
1.3 0.3 0.9
1.4 0.3 0.9
1.5 0.3 0.9
1.6 0.3 0.9
1.7 0.3 0.9
1.8 0.3 0.9
1.9 0.3 0.9
-0.1 0.4 0.9
0 0.4 0.9
0.1 0.4 0.9
0.2 0.4 0.9
0.3 0.4 0.9
0.4 0.4 0.9
0.5 0.4 0.9
0.6 0.4 0.9
0.7 0.4 0.9
0.8 0.4 0.9
0.9 0.4 0.9
1 0.4 0.9
1.1 0.4 0.9
1.2 0.4 0.9
1.3 0.4 0.9
1.4 0.4 0.9
1.5 0.4 0.9
1.6 0.4 0.9
1.7 0.4 0.9
1.8 0.4 0.9
1.9 0.4 0.9
-0.1 0.5 0.9
0 0.5 0.9
0.1 0.5 0.9
0.2 0.5 0.9
0.3 0.5 0.9
0.4 0.5 0.9
0.5 0.5 0.9
0.6 0.5 0.9
0.7 0.5 0.9
0.8 0.5 0.9
0.9 0.5 0.9
1 0.5 0.9
1.1 0.5 0.9
1.2 0.5 0.9
1.3 0.5 0.9
1.4 0.5 0.9
1.5 0.5 0.9
1.6 0.5 0.9
1.7 0.5 0.9
1.8 0.5 0.9
1.9 0.5 0.9
-0.1 0.6 0.9
0 0.6 0.9
0.1 0.6 0.9
0.2 0.6 0.9
0.3 0.6 0.9
0.4 0.6 0.9
0.5 0.6 0.9
0.6 0.6 0.9
0.7 0.6 0.9
0.8 0.6 0.9
0.9 0.6 0.9
1 0.6 0.9
1.1 0.6 0.9
1.2 0.6 0.9
1.3 0.6 0.9
1.4 0.6 0.9
1.5 0.6 0.9
1.6 0.6 0.9
1.7 0.6 0.9
1.8 0.6 0.9
1.9 0.6 0.9
-0.1 0.7 0.9
0 0.7 0.9
0.1 0.7 0.9
0.2 0.7 0.9
0.3 0.7 0.9
0.4 0.7 0.9
0.5 0.7 0.9
0.6 0.7 0.9
0.7 0.7 0.9
0.8 0.7 0.9
0.9 0.7 0.9
1 0.7 0.9
1.1 0.7 0.9
1.2 0.7 0.9
1.3 0.7 0.9
1.4 0.7 0.9
1.5 0.7 0.9
1.6 0.7 0.9
1.7 0.7 0.9
1.8 0.7 0.9
1.9 0.7 0.9
-0.1 0.8 0.9
0 0.8 0.9
0.1 0.8 0.9
0.2 0.8 0.9
0.3 0.8 0.9
0.4 0.8 0.9
0.5 0.8 0.9
0.6 0.8 0.9
0.7 0.8 0.9
0.8 0.8 0.9
0.9 0.8 0.9
1 0.8 0.9
1.1 0.8 0.9
1.2 0.8 0.9
1.3 0.8 0.9
1.4 0.8 0.9
1.5 0.8 0.9
1.6 0.8 0.9
1.7 0.8 0.9
1.8 0.8 0.9
1.9 0.8 0.9
-0.1 0.9 0.9
0 0.9 0.9
0.1 0.9 0.9
0.2 0.9 0.9
0.3 0.9 0.9
0.4 0.9 0.9
0.5 0.9 0.9
0.6 0.9 0.9
0.7 0.9 0.9
0.8 0.9 0.9
0.9 0.9 0.9
1 0.9 0.9
1.1 0.9 0.9
1.2 0.9 0.9
1.3 0.9 0.9
1.4 0.9 0.9
1.5 0.9 0.9
1.6 0.9 0.9
1.7 0.9 0.9
1.8 0.9 0.9
1.9 0.9 0.9
-0.1 1 0.9
0 1 0.9
0.1 1 0.9
0.2 1 0.9
0.3 1 0.9
0.4 1 0.9
0.5 1 0.9
0.6 1 0.9
0.7 1 0.9
0.8 1 0.9
0.9 1 0.9
1 1 0.9
1.1 1 0.9
1.2 1 0.9
1.3 1 0.9
1.4 1 0.9
1.5 1 0.9
1.6 1 0.9
1.7 1 0.9
1.8 1 0.9
1.9 1 0.9
-0.1 1.1 0.9
0 1.1 0.9
0.1 1.1 0.9
0.2 1.1 0.9
0.3 1.1 0.9
0.4 1.1 0.9
0.5 1.1 0.9
0.6 1.1 0.9
0.7 1.1 0.9
0.8 1.1 0.9
0.9 1.1 0.9
1 1.1 0.9
1.1 1.1 0.9
1.2 1.1 0.9
1.3 1.1 0.9
1.4 1.1 0.9
1.5 1.1 0.9
1.6 1.1 0.9
1.7 1.1 0.9
1.8 1.1 0.9
1.9 1.1 0.9
-0.1 1.2 0.9
0 1.2 0.9
0.1 1.2 0.9
0.2 1.2 0.9
0.3 1.2 0.9
0.4 1.2 0.9
0.5 1.2 0.9
0.6 1.2 0.9
0.7 1.2 0.9
0.8 1.2 0.9
0.9 1.2 0.9
1 1.2 0.9
1.1 1.2 0.9
1.2 1.2 0.9
1.3 1.2 0.9
1.4 1.2 0.9
1.5 1.2 0.9
1.6 1.2 0.9
1.7 1.2 0.9
1.8 1.2 0.9
1.9 1.2 0.9
-0.1 1.3 0.9
0 1.3 0.9
0.1 1.3 0.9
0.2 1.3 0.9
0.3 1.3 0.9
0.4 1.3 0.9
0.5 1.3 0.9
0.6 1.3 0.9
0.7 1.3 0.9
0.8 1.3 0.9
0.9 1.3 0.9
1 1.3 0.9
1.1 1.3 0.9
1.2 1.3 0.9
1.3 1.3 0.9
1.4 1.3 0.9
1.5 1.3 0.9
1.6 1.3 0.9
1.7 1.3 0.9
1.8 1.3 0.9
1.9 1.3 0.9
-0.1 1.4 0.9
0 1.4 0.9
0.1 1.4 0.9
0.2 1.4 0.9
0.3 1.4 0.9
0.4 1.4 0.9
0.5 1.4 0.9
0.6 1.4 0.9
0.7 1.4 0.9
0.8 1.4 0.9
0.9 1.4 0.9
1 1.4 0.9
1.1 1.4 0.9
1.2 1.4 0.9
1.3 1.4 0.9
1.4 1.4 0.9
1.5 1.4 0.9
1.6 1.4 0.9
1.7 1.4 0.9
1.8 1.4 0.9
1.9 1.4 0.9
-0.1 1.5 0.9
0 1.5 0.9
0.1 1.5 0.9
0.2 1.5 0.9
0.3 1.5 0.9
0.4 1.5 0.9
0.5 1.5 0.9
0.6 1.5 0.9
0.7 1.5 0.9
0.8 1.5 0.9
0.9 1.5 0.9
1 1.5 0.9
1.1 1.5 0.9
1.2 1.5 0.9
1.3 1.5 0.9
1.4 1.5 0.9
1.5 1.5 0.9
1.6 1.5 0.9
1.7 1.5 0.9
1.8 1.5 0.9
1.9 1.5 0.9
-0.1 1.6 0.9
0 1.6 0.9
0.1 1.6 0.9
0.2 1.6 0.9
0.3 1.6 0.9
0.4 1.6 0.9
0.5 1.6 0.9
0.6 1.6 0.9
0.7 1.6 0.9
0.8 1.6 0.9
0.9 1.6 0.9
1 1.6 0.9
1.1 1.6 0.9
1.2 1.6 0.9
1.3 1.6 0.9
1.4 1.6 0.9
1.5 1.6 0.9
1.6 1.6 0.9
1.7 1.6 0.9
1.8 1.6 0.9
1.9 1.6 0.9
-0.1 1.7 0.9
0 1.7 0.9
0.1 1.7 0.9
0.2 1.7 0.9
0.3 1.7 0.9
0.4 1.7 0.9
0.5 1.7 0.9
0.6 1.7 0.9
0.7 1.7 0.9
0.8 1.7 0.9
0.9 1.7 0.9
1 1.7 0.9
1.1 1.7 0.9
1.2 1.7 0.9
1.3 1.7 0.9
1.4 1.7 0.9
1.5 1.7 0.9
1.6 1.7 0.9
1.7 1.7 0.9
1.8 1.7 0.9
1.9 1.7 0.9
-0.1 1.8 0.9
0 1.8 0.9
0.1 1.8 0.9
0.2 1.8 0.9
0.3 1.8 0.9
0.4 1.8 0.9
0.5 1.8 0.9
0.6 1.8 0.9
0.7 1.8 0.9
0.8 1.8 0.9
0.9 1.8 0.9
1 1.8 0.9
1.1 1.8 0.9
1.2 1.8 0.9
1.3 1.8 0.9
1.4 1.8 0.9
1.5 1.8 0.9
1.6 1.8 0.9
1.7 1.8 0.9
1.8 1.8 0.9
1.9 1.8 0.9
-0.1 1.9 0.9
0 1.9 0.9
0.1 1.9 0.9
0.2 1.9 0.9
0.3 1.9 0.9
0.4 1.9 0.9
0.5 1.9 0.9
0.6 1.9 0.9
0.7 1.9 0.9
0.8 1.9 0.9
0.9 1.9 0.9
1 1.9 0.9
1.1 1.9 0.9
1.2 1.9 0.9
1.3 1.9 0.9
1.4 1.9 0.9
1.5 1.9 0.9
1.6 1.9 0.9
1.7 1.9 0.9
1.8 1.9 0.9
1.9 1.9 0.9
-0.1 -0.1 1
0 -0.1 1
0.1 -0.1 1
0.2 -0.1 1
0.3 -0.1 1
0.4 -0.1 1
0.5 -0.1 1
0.6 -0.1 1
0.7 -0.1 1
0.8 -0.1 1
0.9 -0.1 1
1 -0.1 1
1.1 -0.1 1
1.2 -0.1 1
1.3 -0.1 1
1.4 -0.1 1
1.5 -0.1 1
1.6 -0.1 1
1.7 -0.1 1
1.8 -0.1 1
1.9 -0.1 1
-0.1 0 1
0 0 1
0.1 0 1
0.2 0 1
0.3 0 1
0.4 0 1
0.5 0 1
0.6 0 1
0.7 0 1
0.8 0 1
0.9 0 1
1 0 1
1.1 0 1
1.2 0 1
1.3 0 1
1.4 0 1
1.5 0 1
1.6 0 1
1.7 0 1
1.8 0 1
1.9 0 1
-0.1 0.1 1
0 0.1 1
0.1 0.1 1
0.2 0.1 1
0.3 0.1 1
0.4 0.1 1
0.5 0.1 1
0.6 0.1 1
0.7 0.1 1
0.8 0.1 1
0.9 0.1 1
1 0.1 1
1.1 0.1 1
1.2 0.1 1
1.3 0.1 1
1.4 0.1 1
1.5 0.1 1
1.6 0.1 1
1.7 0.1 1
1.8 0.1 1
1.9 0.1 1
-0.1 0.2 1
0 0.2 1
0.1 0.2 1
0.2 0.2 1
0.3 0.2 1
0.4 0.2 1
0.5 0.2 1
0.6 0.2 1
0.7 0.2 1
0.8 0.2 1
0.9 0.2 1
1 0.2 1
1.1 0.2 1
1.2 0.2 1
1.3 0.2 1
1.4 0.2 1
1.5 0.2 1
1.6 0.2 1
1.7 0.2 1
1.8 0.2 1
1.9 0.2 1
-0.1 0.3 1
0 0.3 1
0.1 0.3 1
0.2 0.3 1
0.3 0.3 1
0.4 0.3 1
0.5 0.3 1
0.6 0.3 1
0.7 0.3 1
0.8 0.3 1
0.9 0.3 1
1 0.3 1
1.1 0.3 1
1.2 0.3 1
1.3 0.3 1
1.4 0.3 1
1.5 0.3 1
1.6 0.3 1
1.7 0.3 1
1.8 0.3 1
1.9 0.3 1
-0.1 0.4 1
0 0.4 1
0.1 0.4 1
0.2 0.4 1
0.3 0.4 1
0.4 0.4 1
0.5 0.4 1
0.6 0.4 1
0.7 0.4 1
0.8 0.4 1
0.9 0.4 1
1 0.4 1
1.1 0.4 1
1.2 0.4 1
1.3 0.4 1
1.4 0.4 1
1.5 0.4 1
1.6 0.4 1
1.7 0.4 1
1.8 0.4 1
1.9 0.4 1
-0.1 0.5 1
0 0.5 1
0.1 0.5 1
0.2 0.5 1
0.3 0.5 1
0.4 0.5 1
0.5 0.5 1
0.6 0.5 1
0.7 0.5 1
0.8 0.5 1
0.9 0.5 1
1 0.5 1
1.1 0.5 1
1.2 0.5 1
1.3 0.5 1
1.4 0.5 1
1.5 0.5 1
1.6 0.5 1
1.7 0.5 1
1.8 0.5 1
1.9 0.5 1
-0.1 0.6 1
0 0.6 1
0.1 0.6 1
0.2 0.6 1
0.3 0.6 1
0.4 0.6 1
0.5 0.6 1
0.6 0.6 1
0.7 0.6 1
0.8 0.6 1
0.9 0.6 1
1 0.6 1
1.1 0.6 1
1.2 0.6 1
1.3 0.6 1
1.4 0.6 1
1.5 0.6 1
1.6 0.6 1
1.7 0.6 1
1.8 0.6 1
1.9 0.6 1
-0.1 0.7 1
0 0.7 1
0.1 0.7 1
0.2 0.7 1
0.3 0.7 1
0.4 0.7 1
0.5 0.7 1
0.6 0.7 1
0.7 0.7 1
0.8 0.7 1
0.9 0.7 1
1 0.7 1
1.1 0.7 1
1.2 0.7 1
1.3 0.7 1
1.4 0.7 1
1.5 0.7 1
1.6 0.7 1
1.7 0.7 1
1.8 0.7 1
1.9 0.7 1
-0.1 0.8 1
0 0.8 1
0.1 0.8 1
0.2 0.8 1
0.3 0.8 1
0.4 0.8 1
0.5 0.8 1
0.6 0.8 1
0.7 0.8 1
0.8 0.8 1
0.9 0.8 1
1 0.8 1
1.1 0.8 1
1.2 0.8 1
1.3 0.8 1
1.4 0.8 1
1.5 0.8 1
1.6 0.8 1
1.7 0.8 1
1.8 0.8 1
1.9 0.8 1
-0.1 0.9 1
0 0.9 1
0.1 0.9 1
0.2 0.9 1
0.3 0.9 1
0.4 0.9 1
0.5 0.9 1
0.6 0.9 1
0.7 0.9 1
0.8 0.9 1
0.9 0.9 1
1 0.9 1
1.1 0.9 1
1.2 0.9 1
1.3 0.9 1
1.4 0.9 1
1.5 0.9 1
1.6 0.9 1
1.7 0.9 1
1.8 0.9 1
1.9 0.9 1
-0.1 1 1
0 1 1
0.1 1 1
0.2 1 1
0.3 1 1
0.4 1 1
0.5 1 1
0.6 1 1
0.7 1 1
0.8 1 1
0.9 1 1
1 1 1
1.1 1 1
1.2 1 1
1.3 1 1
1.4 1 1
1.5 1 1
1.6 1 1
1.7 1 1
1.8 1 1
1.9 1 1
-0.1 1.1 1
0 1.1 1
0.1 1.1 1
0.2 1.1 1
0.3 1.1 1
0.4 1.1 1
0.5 1.1 1
0.6 1.1 1
0.7 1.1 1
0.8 1.1 1
0.9 1.1 1
1 1.1 1
1.1 1.1 1
1.2 1.1 1
1.3 1.1 1
1.4 1.1 1
1.5 1.1 1
1.6 1.1 1
1.7 1.1 1
1.8 1.1 1
1.9 1.1 1
-0.1 1.2 1
0 1.2 1
0.1 1.2 1
0.2 1.2 1
0.3 1.2 1
0.4 1.2 1
0.5 1.2 1
0.6 1.2 1
0.7 1.2 1
0.8 1.2 1
0.9 1.2 1
1 1.2 1
1.1 1.2 1
1.2 1.2 1
1.3 1.2 1
1.4 1.2 1
1.5 1.2 1
1.6 1.2 1
1.7 1.2 1
1.8 1.2 1
1.9 1.2 1
-0.1 1.3 1
0 1.3 1
0.1 1.3 1
0.2 1.3 1
0.3 1.3 1
0.4 1.3 1
0.5 1.3 1
0.6 1.3 1
0.7 1.3 1
0.8 1.3 1
0.9 1.3 1
1 1.3 1
1.1 1.3 1
1.2 1.3 1
1.3 1.3 1
1.4 1.3 1
1.5 1.3 1
1.6 1.3 1
1.7 1.3 1
1.8 1.3 1
1.9 1.3 1
-0.1 1.4 1
0 1.4 1
0.1 1.4 1
0.2 1.4 1
0.3 1.4 1
0.4 1.4 1
0.5 1.4 1
0.6 1.4 1
0.7 1.4 1
0.8 1.4 1
0.9 1.4 1
1 1.4 1
1.1 1.4 1
1.2 1.4 1
1.3 1.4 1
1.4 1.4 1
1.5 1.4 1
1.6 1.4 1
1.7 1.4 1
1.8 1.4 1
1.9 1.4 1
-0.1 1.5 1
0 1.5 1
0.1 1.5 1
0.2 1.5 1
0.3 1.5 1
0.4 1.5 1
0.5 1.5 1
0.6 1.5 1
0.7 1.5 1
0.8 1.5 1
0.9 1.5 1
1 1.5 1
1.1 1.5 1
1.2 1.5 1
1.3 1.5 1
1.4 1.5 1
1.5 1.5 1
1.6 1.5 1
1.7 1.5 1
1.8 1.5 1
1.9 1.5 1
-0.1 1.6 1
0 1.6 1
0.1 1.6 1
0.2 1.6 1
0.3 1.6 1
0.4 1.6 1
0.5 1.6 1
0.6 1.6 1
0.7 1.6 1
0.8 1.6 1
0.9 1.6 1
1 1.6 1
1.1 1.6 1
1.2 1.6 1
1.3 1.6 1
1.4 1.6 1
1.5 1.6 1
1.6 1.6 1
1.7 1.6 1
1.8 1.6 1
1.9 1.6 1
-0.1 1.7 1
0 1.7 1
0.1 1.7 1
0.2 1.7 1
0.3 1.7 1
0.4 1.7 1
0.5 1.7 1
0.6 1.7 1
0.7 1.7 1
0.8 1.7 1
0.9 1.7 1
1 1.7 1
1.1 1.7 1
1.2 1.7 1
1.3 1.7 1
1.4 1.7 1
1.5 1.7 1
1.6 1.7 1
1.7 1.7 1
1.8 1.7 1
1.9 1.7 1
-0.1 1.8 1
0 1.8 1
0.1 1.8 1
0.2 1.8 1
0.3 1.8 1
0.4 1.8 1
0.5 1.8 1
0.6 1.8 1
0.7 1.8 1
0.8 1.8 1
0.9 1.8 1
1 1.8 1
1.1 1.8 1
1.2 1.8 1
1.3 1.8 1
1.4 1.8 1
1.5 1.8 1
1.6 1.8 1
1.7 1.8 1
1.8 1.8 1
1.9 1.8 1
-0.1 1.9 1
0 1.9 1
0.1 1.9 1
0.2 1.9 1
0.3 1.9 1
0.4 1.9 1
0.5 1.9 1
0.6 1.9 1
0.7 1.9 1
0.8 1.9 1
0.9 1.9 1
1 1.9 1
1.1 1.9 1
1.2 1.9 1
1.3 1.9 1
1.4 1.9 1
1.5 1.9 1
1.6 1.9 1
1.7 1.9 1
1.8 1.9 1
1.9 1.9 1
-0.1 -0.1 1.1
0 -0.1 1.1
0.1 -0.1 1.1
0.2 -0.1 1.1
0.3 -0.1 1.1
0.4 -0.1 1.1
0.5 -0.1 1.1
0.6 -0.1 1.1
0.7 -0.1 1.1
0.8 -0.1 1.1
0.9 -0.1 1.1
1 -0.1 1.1
1.1 -0.1 1.1
1.2 -0.1 1.1
1.3 -0.1 1.1
1.4 -0.1 1.1
1.5 -0.1 1.1
1.6 -0.1 1.1
1.7 -0.1 1.1
1.8 -0.1 1.1
1.9 -0.1 1.1
-0.1 0 1.1
0 0 1.1
0.1 0 1.1
0.2 0 1.1
0.3 0 1.1
0.4 0 1.1
0.5 0 1.1
0.6 0 1.1
0.7 0 1.1
0.8 0 1.1
0.9 0 1.1
1 0 1.1
1.1 0 1.1
1.2 0 1.1
1.3 0 1.1
1.4 0 1.1
1.5 0 1.1
[...]
CELL_DATA 4000
VECTORS velocity double 
-4.00062e-05 -0.000233821 0.00251638
-7.435e-05 -0.000280743 0.00193703
-8.96255e-05 -0.000296749 0.00164766
-9.1362e-05 -0.000303155 0.00161818
-8.71266e-05 -0.00030525 0.00163737
-8.13117e-05 -0.000305804 0.00165206
-7.56454e-05 -0.000305881 0.00165666
-7.04299e-05 -0.000305858 0.00165237
-6.52631e-05 -0.000305806 0.00164021
-5.94432e-05 -0.000305681 0.00162067
-5.21028e-05 -0.000305392 0.00159407
-4.23679e-05 -0.000304806 0.00156091
-2.95456e-05 -0.000303751 0.00152189
-1.32462e-05 -0.000301977 0.00147801
6.33707e-06 -0.000299206 0.00143037
2.78958e-05 -0.00029506 0.00138076
4.79095e-05 -0.000288979 0.00133928
5.82211e-05 -0.000280022 0.00136861
4.2899e-05 -0.000267392 0.0016997
2.14495e-05 -0.000232757 0.0023827
-6.38344e-05 -0.000598354 0.00160726
-0.000117899 -0.000727219 -0.000522428
-0.000142786 -0.000764356 -0.00130115
-0.000148243 -0.000779767 -0.00141789
-0.000144751 -0.00078568 -0.00140154
-0.000137995 -0.000787852 -0.00138064
-0.000130308 -0.000788704 -0.00137179
-0.000122229 -0.000789123 -0.00137455
-0.000113435 -0.000789314 -0.00138779
-0.000103211 -0.000789207 -0.00141099
-9.05871e-05 -0.000788561 -0.00144366
-7.45163e-05 -0.000787044 -0.0014852
-5.40348e-05 -0.000784213 -0.00153475
-2.84874e-05 -0.000779534 -0.00159099
2.2444e-06 -0.000772316 -0.00165246
3.71887e-05 -0.000761787 -0.00171627
7.31422e-05 -0.000746887 -0.00176101
0.000100274 -0.000726308 -0.00164678
9.20911e-05 -0.000697176 -0.000816122
4.60455e-05 -0.000596012 0.00145657
-9.07145e-05 -0.00102777 0.000614916
-0.000161666 -0.00126438 -0.00242316
-0.000192417 -0.00132567 -0.00344794
-0.000197969 -0.00135117 -0.00360774
-0.000192126 -0.00136177 -0.00359486
-0.000182101 -0.00136624 -0.00357263
-0.000170815 -0.00136839 -0.00356262
-0.000158977 -0.00136962 -0.00356498
-0.000146265 -0.00137034 -0.00357863
-0.000131846 -0.00137042 -0.00360298
-0.000114604 -0.00136949 -0.00363749
-9.32786e-05 -0.00136695 -0.00368147
-6.66956e-05 -0.00136206 -0.00373389
-3.38763e-05 -0.00135395 -0.00379317
5.56771e-06 -0.00134157 -0.00385748
5.10311e-05 -0.00132374 -0.00392325
9.93996e-05 -0.00129912 -0.00396438
0.000139745 -0.00126617 -0.00380671
0.000137969 -0.00121807 -0.00272778
6.89843e-05 -0.00102362 0.000463031
-0.000117994 -0.00149579 -0.000446511
-0.000206766 -0.00186582 -0.00425101
-0.000243989 -0.00195578 -0.00546293
-0.000249681 -0.00199264 -0.00565495
-0.000241164 -0.00200861 -0.00564513
-0.00022735 -0.00201588 -0.00562215
-0.00021188 -0.00201969 -0.00561146
-0.000195731 -0.00202208 -0.00561371
-0.000178588 -0.0020236 -0.00562787
-0.00015949 -0.00202407 -0.00565332
-0.000137118 -0.00202297 -0.00568955
-0.000109967 -0.00201946 -0.00573569
-7.65903e-05 -0.00201246 -0.00579044
-3.57187e-05 -0.00200069 -0.00585195
1.32954e-05 -0.00198272 -0.00591786
6.99786e-05 -0.00195703 -0.00598375
0.000130913 -0.00192202 -0.00602003
0.000183319 -0.00187562 -0.0058283
0.000185708 -0.00180411 -0.0045612
9.28542e-05 -0.00149018 -0.00060112
-0.000147374 -0.00198644 -0.00179763
-0.000255843 -0.00251407 -0.00649986
-0.000300359 -0.00263824 -0.00792591
-0.000306259 -0.00268787 -0.00815541
-0.000294788 -0.00270989 -0.00814968
-0.000276802 -0.00272041 -0.00812624
-0.000256762 -0.00272626 -0.00811499
-0.000235914 -0.00273012 -0.00811722
-0.000213903 -0.00273272 -0.00813197
-0.000189671 -0.00273386 -0.00815863
-0.00016164 -0.00273285 -0.00819667
-0.000128001 -0.00272859 -0.0082451
-8.69482e-05 -0.00271962 -0.00830228
-3.69344e-05 -0.00270419 -0.00836596
2.295e-05 -0.00268041 -0.00843325
9.22577e-05 -0.00264633 -0.00849875
0.000167079 -0.00260003 -0.00852876
0.000232381 -0.00253855 -0.00829749
0.000238138 -0.002438 -0.00681562
0.000119069 -0.00198001 -0.00195587
-0.000180322 -0.00247867 -0.00354788
-0.000311064 -0.00318399 -0.00936383
-0.000363756 -0.0033481 -0.0110537
-0.000369795 -0.00341193 -0.0113299
-0.000354929 -0.00344052 -0.0113299
-0.000332227 -0.00345458 -0.0113065
-0.000307074 -0.00346273 -0.0112949
-0.000281 -0.00346832 -0.0112973
-0.000253646 -0.00347232 -0.0113128
-0.000223791 -0.00347451 -0.0113408
-0.000189564 -0.00347397 -0.0113806
-0.00014877 -0.00346932 -0.0114313
-9.91596e-05 -0.00345873 -0.0114909
-3.87897e-05 -0.00343991 -0.0115566
3.35152e-05 -0.00341036 -0.0116248
0.000117341 -0.00336756 -0.0116894
0.000208105 -0.00330913 -0.0117115
0.000288057 -0.00323059 -0.0114319
0.000297418 -0.00309481 -0.00968587
0.000148709 -0.0024724 -0.00370987
-0.000217429 -0.00293886 -0.00578555
-0.00037333 -0.0038347 -0.0129727
-0.000435125 -0.00404389 -0.0149855
-0.000441153 -0.00412299 -0.0153194
-0.000422293 -0.00415835 -0.0153271
-0.000394213 -0.00417607 -0.0153044
-0.000363333 -0.00418664 -0.015293
-0.000331506 -0.00419415 -0.0152959
-0.000298377 -0.00419981 -0.0153123
-0.000262456 -0.00420345 -0.0153417
-0.000221547 -0.00420395 -0.0153833
-0.000173042 -0.00419956 -0.0154359
-0.000114098 -0.00418802 -0.0154975
-4.22398e-05 -0.00416649 -0.0155648
4.41429e-05 -0.00413163 -0.0156334
0.000144636 -0.00408019 -0.015696
0.00025393 -0.00400907 -0.0157082
0.0003509 -0.00391164 -0.0153694
0.000364382 -0.00373455 -0.013301
0.000182191 -0.00293425 -0.00595084
-0.000258683 -0.00331511 -0.00860268
-0.000442513 -0.0044028 -0.0174583
-0.00051416 -0.00466061 -0.0198617
-0.000519856 -0.00475532 -0.020266
-0.000496362 -0.00479714 -0.0202841
-0.000462221 -0.00481823 -0.0202631
-0.000425015 -0.00483112 -0.0202526
-0.000386967 -0.00484065 -0.0202564
-0.000347739 -0.00484825 -0.0202739
-0.000305546 -0.00485374 -0.0203047
-0.000257762 -0.00485594 -0.020348
-0.000201253 -0.0048528 -0.0204023
-0.000132543 -0.0048415 -0.0204654
-4.8325e-05 -0.00481853 -0.0205333
5.35824e-05 -0.00477966 -0.0206011
0.000172932 -0.00472053 -0.0206602
0.000303535 -0.00463686 -0.0206594
0.000420311 -0.00451913 -0.0202492
0.000438684 -0.00429552 -0.0177915
0.000219342 -0.00331413 -0.00877019
-0.00030327 -0.00353224 -0.0120863
-0.000517131 -0.00479591 -0.0229478
-0.00059896 -0.00510292 -0.0258186
-0.00060378 -0.00521215 -0.0263081
-0.000574895 -0.00525923 -0.0263395
-0.000534054 -0.00528289 -0.0263215
-0.00049009 -0.00529765 -0.0263126
-0.000445576 -0.00530905 -0.0263179
-0.000400158 -0.00531872 -0.0263368
-0.000351836 -0.00532648 -0.0263689
-0.000297512 -0.00533111 -0.0264136
-0.000233362 -0.00533044 -0.0264692
-0.000155106 -0.00532123 -0.0265329
-5.84184e-05 -0.00529909 -0.0266004
5.98212e-05 -0.00525872 -0.0266659
0.000199848 -0.00519429 -0.0267196
0.000354512 -0.00509973 -0.0267024
0.000494041 -0.00496145 -0.0262061
0.000518571 -0.00468757 -0.0232834
0.000259285 -0.00353691 -0.0122544
-0.000349226 -0.00348843 -0.0162991
-0.000593656 -0.00488765 -0.0295384
-0.000685038 -0.00523951 -0.0329613
-0.000688051 -0.00535991 -0.0335518
-0.000653028 -0.00540972 -0.0335997
-0.000605027 -0.0054344 -0.0335857
-0.000554166 -0.00545009 -0.0335791
-0.00050335 -0.0054628 -0.0335863
-0.000452152 -0.00547436 -0.033607
-0.000398416 -0.00548466 -0.0336405
-0.000338638 -0.00549257 -0.0336861
-0.000268286 -0.00549591 -0.0337424
-0.000181965 -0.00549122 -0.033806
-7.40758e-05 -0.00547341 -0.0338721
5.99365e-05 -0.00543586 -0.033934
0.000221273 -0.00537082 -0.0339805
0.000402171 -0.00526951 -0.0339431
0.000567578 -0.0051127 -0.0333451
0.000600201 -0.00478782 -0.0298735
0.0003001 -0.00350091 -0.0164658
-0.000392811 -0.00305613 -0.0212535
-0.000665398 -0.00451705 -0.0372629
-0.000764139 -0.00490195 -0.0413277
-0.000763864 -0.00502664 -0.0420347
-0.000722075 -0.00507473 -0.0421014
-0.000666874 -0.00509779 -0.0420922
-0.000609476 -0.00511289 -0.0420882
-0.000553117 -0.0051259 -0.0420973
-0.000497348 -0.00513871 -0.0421195
-0.000439877 -0.00515145 -0.0421543
-0.000376894 -0.00516327 -0.0422008
-0.00030321 -0.0051723 -0.0422572
-0.000212244 -0.00517518 -0.0423203
-9.67107e-05 -0.00516648 -0.0423845
5.00187e-05 -0.00513841 -0.0424425
0.000230992 -0.00508082 -0.0424812
0.000438687 -0.00498094 -0.0424213
0.000632564 -0.00481178 -0.0417058
0.000676016 -0.00444032 -0.0375957
0.000338008 -0.00307823 -0.0214166
-0.000427721 -0.00209092 -0.0268833
-0.000721133 -0.00349668 -0.0460518
-0.000822469 -0.00389164 -0.0508475
-0.000816684 -0.00400883 -0.0516843
-0.000767806 -0.00404832 -0.0517698
-0.0007062 -0.00406582 -0.0517644
-0.000643617 -0.00407797 -0.0517626
-0.000583464 -0.00408977 -0.0517733
-0.000525406 -0.00410272 -0.0517966
-0.000467142 -0.00411725 -0.0518321
-0.000404776 -0.00413309 -0.051879
-0.000332621 -0.00414918 -0.0519356
-0.000243038 -0.00416291 -0.0519984
-0.000126836 -0.00416924 -0.0520617
2.54974e-05 -0.00415974 -0.0521174
0.000220278 -0.00412194 -0.0521507
0.000451846 -0.00403769 -0.0520696
0.000675107 -0.00386926 -0.0512238
0.000733398 -0.00346388 -0.0463846
0.000366699 -0.00212326 -0.0270409
-0.000443889 -0.000453888 -0.0330203
-0.000742869 -0.0016357 -0.0557015
-0.000838395 -0.00200196 -0.061309
-0.000824144 -0.00209312 -0.0622834
-0.000768544 -0.00211449 -0.0623842
-0.000702702 -0.00212143 -0.0623793
-0.000637934 -0.00212763 -0.0623775
-0.000577409 -0.00213604 -0.0623883
-0.000520919 -0.0021474 -0.0624115
-0.000466441 -0.00216231 -0.0624468
-0.000410374 -0.00218145 -0.0624937
-0.000347009 -0.00220509 -0.0625507
-0.000268084 -0.00223232 -0.0626147
-0.000162573 -0.00225976 -0.0626803
-1.76076e-05 -0.00227979 -0.0627391
0.000178327 -0.00227847 -0.0627746
0.000424385 -0.00223187 -0.0626799
0.000674123 -0.00208803 -0.0616975
0.000752509 -0.0016751 -0.0560438
0.000376254 -0.000494726 -0.0331709
-0.000425778 0.00194871 -0.0393961
-0.000702986 0.00121876 -0.0658677
-0.000779335 0.000941523 -0.0723493
-0.000753415 0.000903198 -0.0734605
-0.000693226 0.000912032 -0.0735684
-0.000627627 0.000921084 -0.0735577
-0.000566119 0.000923969 -0.0735516
-0.000511043 0.00092141 -0.0735595
-0.000462238 0.00091399 -0.0735804
-0.000418271 0.000900945 -0.0736139
-0.000376302 0.000880462 -0.07366
-0.000331443 0.000850367 -0.0737181
-0.000275779 0.000808822 -0.0737862
-0.000197347 0.000755881 -0.07386
-7.99503e-05 0.000695777 -0.0739323
9.44706e-05 0.000641032 -0.0739851
0.000334394 0.000619665 -0.0738943
0.000599199 0.000699932 -0.0727797
0.000703358 0.00107161 -0.0662401
0.000351679 0.00190534 -0.0395394
-0.00034912 0.00510099 -0.0456702
-0.000559509 0.00511307 -0.0760811
-0.000597333 0.00501385 -0.0834687
-0.000557399 0.00506364 -0.084705
-0.000498253 0.00511597 -0.0848064
-0.0004414 0.00514602 -0.0847811
-0.000392489 0.00516056 -0.0847647
-0.0003523 0.00516614 -0.0847654
-0.000320565 0.00516517 -0.0847808
-0.000296638 0.00515682 -0.0848103
-0.00027899 0.00513819 -0.0848545
-0.000264573 0.00510484 -0.0849144
-0.000247321 0.00505146 -0.0849901
-0.000216482 0.0049729 -0.0850803
-0.000154426 0.00486676 -0.0851807
-3.6709e-05 0.00473855 -0.0852736
0.000158929 0.00461388 -0.0852152
0.000409796 0.00457287 -0.0839866
0.000541981 0.00481896 -0.0765167
0.00027099 0.00506672 -0.0458075
-0.000172704 0.00877507 -0.0512072
-0.000246695 0.00987856 -0.0852156
-0.000222024 0.0100804 -0.093425
-0.000169816 0.0102585 -0.0947556
-0.00012379 0.0103651 -0.094833
-9.08858e-05 0.0104187 -0.0947829
-7.0169e-05 0.0104459 -0.09475
-6.00173e-05 0.010461 -0.0947389
-5.97818e-05 0.0104684 -0.0947453
-6.9494e-05 0.0104675 -0.0947683
-8.93651e-05 0.0104545 -0.0948092
-0.000119022 0.010423 -0.0948713
-0.000156236 0.0103643 -0.0949581
-0.000194618 0.0102671 -0.0950733
-0.000219977 0.0101193 -0.0952182
-0.000206153 0.00991225 -0.0953779
-0.000117252 0.00965545 -0.0953879
5.79114e-05 0.00942209 -0.0940854
0.000201689 0.00940626 -0.0857536
0.000100845 0.00876643 -0.0513421
0.000172769 0.0123592 -0.0531061
0.000333446 0.0149207 -0.0874998
0.000441882 0.015566 -0.0956924
0.000493284 0.0159047 -0.0969637
0.000502671 0.0160676 -0.0969909
0.000486121 0.0161424 -0.096909
0.0004537 0.0161809 -0.0968563
0.000410254 0.0162049 -0.0968313
0.000357332 0.0162208 -0.0968269
0.000294617 0.0162285 -0.0968417
0.000220408 0.0162239 -0.0968782
0.000132041 0.0161998 -0.0969417
2.64662e-05 0.0161452 -0.0970401
-9.79892e-05 0.0160441 -0.0971836
-0.00023801 0.0158743 -0.0973822
-0.000378088 0.0156079 -0.0976277
-0.000481984 0.015221 -0.0977477
-0.000499283 0.0147399 -0.0965308
-0.000415192 0.0142798 -0.0881607
-0.000207596 0.012389 -0.0532421
0.000768803 0.0145758 -0.0370526
0.0012706 0.0187919 -0.0561288
0.0014609 0.0199602 -0.0601887
0.00147556 0.02045 -0.0606421
0.00140778 0.0206529 -0.06052
0.00130346 0.0207397 -0.0604007
0.00118272 0.0207844 -0.0603318
0.00105393 0.0208138 -0.0602964
0.00092012 0.0208354 -0.0602837
0.000781351 0.0208495 -0.0602918
0.000635247 0.0208528 -0.0603236
0.000476753 0.0208387 -0.0603862
0.000297652 0.0207967 -0.0604911
8.62062e-05 0.0207102 -0.0606545
-0.000172204 0.0205519 -0.0608962
-0.000491044 0.0202786 -0.0612258
-0.00086885 0.0198271 -0.0615477
-0.00124966 0.0191314 -0.0611662
-0.00140358 0.0180962 -0.0568729
-0.000701789 0.0146298 -0.0372057
0.00157623 0.0132735 0.0512804
0.00242573 0.018369 0.0930591
0.00261919 0.0197767 0.103362
0.00251901 0.0202897 0.105593
0.00231445 0.0204827 0.10613
0.00207912 0.0205617 0.106305
0.00183955 0.0206021 0.106381
0.00160538 0.0206287 0.106417
0.00137981 0.0206484 0.106431
0.00116262 0.020662 0.106425
0.000950703 0.0206676 0.106398
0.000737494 0.020661 0.106341
0.000511377 0.020635 0.106243
0.000252967 0.020577 0.106084
-7.00985e-05 0.0204648 0.105837
-0.000510709 0.0202578 0.105446
-0.00114473 0.019881 0.104704
-0.00200087 0.0192006 0.102414
-0.00264851 0.0178697 0.09235
-0.00132425 0.0132954 0.0510464
0.00176842 0.00663676 0.387536
0.0025352 0.00918452 0.529297
0.00252791 0.00988834 0.553666
0.00225258 0.0101448 0.557856
0.00193204 0.0102414 0.558635
0.0016333 0.0102809 0.558814
0.00137007 0.0103011 0.55887
0.00114102 0.0103143 0.558891
0.000941071 0.0103242 0.558897
0.000764326 0.010331 0.558892
0.000604173 0.0103338 0.558872
0.000452702 0.0103305 0.558834
0.000298924 0.0103175 0.558767
0.000125271 0.0102885 0.558658
-0.000100105 0.0102324 0.558475
-0.00044025 0.0101289 0.558131
-0.00101396 0.00994049 0.557188
-0.00194231 0.00960032 0.552952
-0.00279683 0.00893486 0.528743
-0.00139842 0.00664772 0.387161
-1.73033e-05 -0.000214633 0.00291526
-3.31271e-05 -0.000253807 0.00239672
-4.04577e-05 -0.00026536 0.00210701
-4.12725e-05 -0.000270015 0.00208096
-4.0114e-05 -0.000271498 0.00210422
-3.96055e-05 -0.000271813 0.00212178
-4.05514e-05 -0.000271818 0.00212806
-4.2813e-05 -0.000271797 0.00212455
-4.57945e-05 -0.000271822 0.00211238
-4.86704e-05 -0.000271895 0.002092
-5.03957e-05 -0.000271884 0.00206363
-4.99496e-05 -0.000271669 0.00202755
-4.63386e-05 -0.000271093 0.00198435
-3.87419e-05 -0.000269909 0.00193504
-2.69636e-05 -0.000267846 0.00188102
-1.21273e-05 -0.000264537 0.00182488
2.44821e-06 -0.000259548 0.00177852
9.4855e-06 -0.000252579 0.00180822
-7.90082e-07 -0.000243224 0.00214766
-3.95041e-07 -0.00021192 0.00277903
-3.16028e-05 -0.000575643 0.00209949
-6.00193e-05 -0.000694657 3.32709e-05
-7.35097e-05 -0.000724487 -0.000755211
-7.6612e-05 -0.000736376 -0.000869649
-7.5926e-05 -0.000740672 -0.000848139
-7.50788e-05 -0.00074201 -0.000823358
-7.52829e-05 -0.000742399 -0.000812149
-7.65537e-05 -0.00074264 -0.000813793
-7.8323e-05 -0.000742927 -0.000827052
-7.96067e-05 -0.000743164 -0.000851357
-7.92034e-05 -0.00074311 -0.000886377
-7.58687e-05 -0.000742497 -0.000931786
-6.82689e-05 -0.000740864 -0.000986876
-5.52334e-05 -0.000737639 -0.00105031
-3.61837e-05 -0.000732134 -0.00112028
-1.19605e-05 -0.000723581 -0.00119286
1.38823e-05 -0.00071109 -0.00124393
3.23606e-05 -0.000694034 -0.00112691
2.69714e-05 -0.000670027 -0.000275669
1.34857e-05 -0.000572285 0.00194439
-5.30222e-05 -0.00103399 0.0011619
-9.52965e-05 -0.00126902 -0.001822
-0.000113989 -0.00132259 -0.00286187
-0.00011761 -0.00134337 -0.00301958
-0.000115393 -0.00135136 -0.00300072
-0.000112198 -0.00135429 -0.00297392
-0.000109809 -0.00135554 -0.00296114
-0.000108389 -0.00135636 -0.00296219
-0.000107304 -0.0013571 -0.00297577
-0.000105492 -0.00135764 -0.00300129
-0.000101663 -0.00135761 -0.00303845
-9.43163e-05 -0.00135649 -0.00308685
-8.18619e-05 -0.00135353 -0.0031456
-6.28103e-05 -0.00134779 -0.00321319
-3.62879e-05 -0.00133811 -0.0032874
-2.80956e-06 -0.00132326 -0.00336341
3.39822e-05 -0.00130205 -0.00341196
6.36624e-05 -0.0012734 -0.00325051
6.36986e-05 -0.00122999 -0.0021439
3.18493e-05 -0.00103021 0.00100459
-7.67416e-05 -0.00157257 0.000172303
-0.00013476 -0.00196218 -0.00358244
-0.000159498 -0.00204653 -0.00481267
-0.000163653 -0.00207807 -0.00500215
-0.00015948 -0.00209066 -0.00498533
-0.000153393 -0.00209578 -0.00495699
-0.000147747 -0.00209829 -0.00494302
-0.000142931 -0.00210004 -0.00494368
-0.000138331 -0.0021015 -0.00495763
-0.000132804 -0.00210252 -0.00498432
-0.000124848 -0.00210262 -0.00502349
-0.000112734 -0.002101 -0.00507461
-9.45506e-05 -0.00209656 -0.00513661
-6.84267e-05 -0.00208796 -0.00520771
-3.31609e-05 -0.0020736 -0.0052851
1.08138e-05 -0.0020517 -0.00536299
5.95661e-05 -0.00202067 -0.00540806
0.000100725 -0.00197862 -0.00521229
0.000104998 -0.0019091 -0.00391242
5.2499e-05 -0.00156855 1.12668e-05
-0.000103053 -0.0021864 -0.00110107
-0.000178939 -0.00277146 -0.00575999
-0.000210517 -0.00289519 -0.00720822
-0.000215171 -0.0029397 -0.00743469
-0.00020865 -0.00295787 -0.00742077
-0.000199132 -0.00296582 -0.0073911
-0.000189742 -0.00297007 -0.007376
-0.000181043 -0.00297309 -0.00737624
-0.00017246 -0.00297558 -0.00739062
-0.00016275 -0.00297736 -0.00741858
-0.000150152 -0.00297775 -0.00745984
-0.000132613 -0.00297571 -0.00751385
-0.000107867 -0.0029698 -0.00757934
-7.36427e-05 -0.00295815 -0.00765408
-2.83293e-05 -0.00293859 -0.00773466
2.77092e-05 -0.00290885 -0.00781416
8.99523e-05 -0.00286679 -0.00785453
0.000143717 -0.00280892 -0.0076188
0.000151741 -0.00270477 -0.0060982
7.58703e-05 -0.00218256 -0.00126684
-0.000133029 -0.00286799 -0.00277956
-0.000229492 -0.00369 -0.00856506
-0.000268825 -0.00386283 -0.0102828
-0.000273866 -0.00392276 -0.0105557
-0.000264488 -0.00394748 -0.0105463
-0.000250912 -0.00395881 -0.0105157
-0.000237098 -0.00396522 -0.0104996
-0.000223934 -0.00396989 -0.0104996
-0.00021083 -0.00397374 -0.0105145
-0.000196373 -0.00397658 -0.0105438
-0.000178532 -0.00397754 -0.0105871
-0.00015491 -0.0039753 -0.010644
-0.000122705 -0.003968 -0.010713
-7.91313e-05 -0.00395325 -0.0107913
-2.22299e-05 -0.00392818 -0.0108749
4.77863e-05 -0.00388987 -0.0109556
0.000125684 -0.00383543 -0.0109897
0.000193852 -0.00375887 -0.0107047
0.000205654 -0.00361028 -0.00891204
0.000102827 -0.00286499 -0.00295026
-0.000167476 -0.00359874 -0.00496528
-0.000287685 -0.00469737 -0.0121449
-0.000335874 -0.00492952 -0.0141936
-0.000341171 -0.00500727 -0.0145245
-0.000328285 -0.0050393 -0.0145217
-0.000309878 -0.00505447 -0.0144908
-0.000290908 -0.00506337 -0.0144743
-0.000272589 -0.00507003 -0.0144743
-0.000254342 -0.00507558 -0.0144899
-0.000234533 -0.00507982 -0.0145205
-0.000210839 -0.00508175 -0.0145659
-0.000180377 -0.00507974 -0.0146254
-0.00013978 -0.00507145 -0.0146975
-8.55797e-05 -0.00505385 -0.0147789
-1.53021e-05 -0.00502326 -0.0148649
7.1007e-05 -0.00497585 -0.0149458
0.000167243 -0.00490771 -0.0149714
0.000252151 -0.00480943 -0.0146257
0.000268028 -0.0046056 -0.0125
0.000134014 -0.00359749 -0.00514035
-0.000206807 -0.00434112 -0.00776927
-0.000354154 -0.00575041 -0.0166545
-0.000412292 -0.00605184 -0.0191054
-0.000417631 -0.00614938 -0.019508
-0.000400538 -0.00618912 -0.0195147
-0.000376454 -0.00620828 -0.0194846
-0.000351539 -0.0062199 -0.0194683
-0.000327356 -0.0062288 -0.0194688
-0.00030333 -0.00623637 -0.0194853
-0.000277623 -0.00624243 -0.0195173
-0.000247554 -0.00624585 -0.0195645
-0.000209671 -0.00624472 -0.0196262
-0.00015987 -0.0062362 -0.0197006
-9.38161e-05 -0.00621649 -0.019784
-8.30495e-06 -0.00618097 -0.019871
9.68798e-05 -0.00612461 -0.0199505
0.00021446 -0.00604211 -0.0199642
0.000318977 -0.00591906 -0.0195442
0.000339476 -0.00564884 -0.0170151
0.000169738 -0.00434292 -0.00794742
-0.000250887 -0.00503021 -0.0113043
-0.000428529 -0.00677278 -0.0222523
-0.000497435 -0.00715173 -0.0251867
-0.000502435 -0.00726998 -0.0256771
-0.000480308 -0.00731708 -0.0256968
-0.000449724 -0.00733995 -0.0256691