# vtk DataFile Version 2.0 
Visualization 
ASCII 
DATASET STRUCTURED_GRID 
DIMENSIONS 21 21 11
POINTS 4851 float
-0.1 -0.1 -0.1
0 -0.1 -0.1
0.1 -0.1 -0.1
0.2 -0.1 -0.1
0.3 -0.1 -0.1
0.4 -0.1 -0.1
0.5 -0.1 -0.1
0.6 -0.1 -0.1
0.7 -0.1 -0.1
0.8 -0.1 -0.1
0.9 -0.1 -0.1
1 -0.1 -0.1
1.1 -0.1 -0.1
1.2 -0.1 -0.1
1.3 -0.1 -0.1
1.4 -0.1 -0.1
1.5 -0.1 -0.1
1.6 -0.1 -0.1
1.7 -0.1 -0.1
1.8 -0.1 -0.1
1.9 -0.1 -0.1
-0.1 0 -0.1
0 0 -0.1
0.1 0 -0.1
0.2 0 -0.1
0.3 0 -0.1
0.4 0 -0.1
0.5 0 -0.1
0.6 0 -0.1
0.7 0 -0.1
0.8 0 -0.1
0.9 0 -0.1
1 0 -0.1
1.1 0 -0.1
1.2 0 -0.1
1.3 0 -0.1
1.4 0 -0.1
1.5 0 -0.1
1.6 0 -0.1
1.7 0 -0.1
1.8 0 -0.1
1.9 0 -0.1
-0.1 0.1 -0.1
0 0.1 -0.1
0.1 0.1 -0.1
0.2 0.1 -0.1
0.3 0.1 -0.1
0.4 0.1 -0.1
0.5 0.1 -0.1
0.6 0.1 -0.1
0.7 0.1 -0.1
0.8 0.1 -0.1
0.9 0.1 -0.1
1 0.1 -0.1
1.1 0.1 -0.1
1.2 0.1 -0.1
1.3 0.1 -0.1
1.4 0.1 -0.1
1.5 0.1 -0.1
1.6 0.1 -0.1
1.7 0.1 -0.1
1.8 0.1 -0.1
1.9 0.1 -0.1
-0.1 0.2 -0.1
0 0.2 -0.1
0.1 0.2 -0.1
0.2 0.2 -0.1
0.3 0.2 -0.1
0.4 0.2 -0.1
0.5 0.2 -0.1
0.6 0.2 -0.1
0.7 0.2 -0.1
0.8 0.2 -0.1
0.9 0.2 -0.1
1 0.2 -0.1
1.1 0.2 -0.1
1.2 0.2 -0.1
1.3 0.2 -0.1
1.4 0.2 -0.1
1.5 0.2 -0.1
1.6 0.2 -0.1
1.7 0.2 -0.1
1.8 0.2 -0.1
1.9 0.2 -0.1
-0.1 0.3 -0.1
0 0.3 -0.1
0.1 0.3 -0.1
0.2 0.3 -0.1
0.3 0.3 -0.1
0.4 0.3 -0.1
0.5 0.3 -0.1
0.6 0.3 -0.1
0.7 0.3 -0.1
0.8 0.3 -0.1
0.9 0.3 -0.1
1 0.3 -0.1
1.1 0.3 -0.1
1.2 0.3 -0.1
1.3 0.3 -0.1
1.4 0.3 -0.1
1.5 0.3 -0.1
1.6 0.3 -0.1
1.7 0.3 -0.1
1.8 0.3 -0.1
1.9 0.3 -0.1
-0.1 0.4 -0.1
0 0.4 -0.1
0.1 0.4 -0.1
0.2 0.4 -0.1
0.3 0.4 -0.1
0.4 0.4 -0.1
0.5 0.4 -0.1
0.6 0.4 -0.1
0.7 0.4 -0.1
0.8 0.4 -0.1
0.9 0.4 -0.1
1 0.4 -0.1
1.1 0.4 -0.1
1.2 0.4 -0.1
1.3 0.4 -0.1
1.4 0.4 -0.1
1.5 0.4 -0.1
1.6 0.4 -0.1
1.7 0.4 -0.1
1.8 0.4 -0.1
1.9 0.4 -0.1
-0.1 0.5 -0.1
0 0.5 -0.1
0.1 0.5 -0.1
0.2 0.5 -0.1
0.3 0.5 -0.1
0.4 0.5 -0.1
0.5 0.5 -0.1
0.6 0.5 -0.1
0.7 0.5 -0.1
0.8 0.5 -0.1
0.9 0.5 -0.1
1 0.5 -0.1
1.1 0.5 -0.1
1.2 0.5 -0.1
1.3 0.5 -0.1
1.4 0.5 -0.1
1.5 0.5 -0.1
1.6 0.5 -0.1
1.7 0.5 -0.1
1.8 0.5 -0.1
1.9 0.5 -0.1
-0.1 0.6 -0.1
0 0.6 -0.1
0.1 0.6 -0.1
0.2 0.6 -0.1
0.3 0.6 -0.1
0.4 0.6 -0.1
0.5 0.6 -0.1
0.6 0.6 -0.1
0.7 0.6 -0.1
0.8 0.6 -0.1
0.9 0.6 -0.1
1 0.6 -0.1
1.1 0.6 -0.1
1.2 0.6 -0.1
1.3 0.6 -0.1
1.4 0.6 -0.1
1.5 0.6 -0.1
1.6 0.6 -0.1
1.7 0.6 -0.1
1.8 0.6 -0.1
1.9 0.6 -0.1
-0.1 0.7 -0.1
0 0.7 -0.1
0.1 0.7 -0.1
0.2 0.7 -0.1
0.3 0.7 -0.1
0.4 0.7 -0.1
0.5 0.7 -0.1
0.6 0.7 -0.1
0.7 0.7 -0.1
0.8 0.7 -0.1
0.9 0.7 -0.1
1 0.7 -0.1
1.1 0.7 -0.1
1.2 0.7 -0.1
1.3 0.7 -0.1
1.4 0.7 -0.1
1.5 0.7 -0.1
1.6 0.7 -0.1
1.7 0.7 -0.1
1.8 0.7 -0.1
1.9 0.7 -0.1
-0.1 0.8 -0.1
0 0.8 -0.1
0.1 0.8 -0.1
0.2 0.8 -0.1
0.3 0.8 -0.1
0.4 0.8 -0.1
0.5 0.8 -0.1
0.6 0.8 -0.1
0.7 0.8 -0.1
0.8 0.8 -0.1
0.9 0.8 -0.1
1 0.8 -0.1
1.1 0.8 -0.1
1.2 0.8 -0.1
1.3 0.8 -0.1
1.4 0.8 -0.1
1.5 0.8 -0.1
1.6 0.8 -0.1
1.7 0.8 -0.1
1.8 0.8 -0.1
1.9 0.8 -0.1
-0.1 0.9 -0.1
0 0.9 -0.1
0.1 0.9 -0.1
0.2 0.9 -0.1
0.3 0.9 -0.1
0.4 0.9 -0.1
0.5 0.9 -0.1
0.6 0.9 -0.1
0.7 0.9 -0.1
0.8 0.9 -0.1
0.9 0.9 -0.1
1 0.9 -0.1
1.1 0.9 -0.1
1.2 0.9 -0.1
1.3 0.9 -0.1
1.4 0.9 -0.1
1.5 0.9 -0.1
1.6 0.9 -0.1
1.7 0.9 -0.1
1.8 0.9 -0.1
1.9 0.9 -0.1
-0.1 1 -0.1
0 1 -0.1
0.1 1 -0.1
0.2 1 -0.1
0.3 1 -0.1
0.4 1 -0.1
0.5 1 -0.1
0.6 1 -0.1
0.7 1 -0.1
0.8 1 -0.1
0.9 1 -0.1
1 1 -0.1
1.1 1 -0.1
1.2 1 -0.1
1.3 1 -0.1
1.4 1 -0.1
1.5 1 -0.1
1.6 1 -0.1
1.7 1 -0.1
1.8 1 -0.1
1.9 1 -0.1
-0.1 1.1 -0.1
0 1.1 -0.1
0.1 1.1 -0.1
0.2 1.1 -0.1
0.3 1.1 -0.1
0.4 1.1 -0.1
0.5 1.1 -0.1
0.6 1.1 -0.1
0.7 1.1 -0.1
0.8 1.1 -0.1
0.9 1.1 -0.1
1 1.1 -0.1
1.1 1.1 -0.1
1.2 1.1 -0.1
1.3 1.1 -0.1
1.4 1.1 -0.1
1.5 1.1 -0.1
1.6 1.1 -0.1
1.7 1.1 -0.1
1.8 1.1 -0.1
1.9 1.1 -0.1
-0.1 1.2 -0.1
0 1.2 -0.1
0.1 1.2 -0.1
0.2 1.2 -0.1
0.3 1.2 -0.1
0.4 1.2 -0.1
0.5 1.2 -0.1
0.6 1.2 -0.1
0.7 1.2 -0.1
0.8 1.2 -0.1
0.9 1.2 -0.1
1 1.2 -0.1
1.1 1.2 -0.1
1.2 1.2 -0.1
1.3 1.2 -0.1
1.4 1.2 -0.1
1.5 1.2 -0.1
1.6 1.2 -0.1
1.7 1.2 -0.1
1.8 1.2 -0.1
1.9 1.2 -0.1
-0.1 1.3 -0.1
0 1.3 -0.1
0.1 1.3 -0.1
0.2 1.3 -0.1
0.3 1.3 -0.1
0.4 1.3 -0.1
0.5 1.3 -0.1
0.6 1.3 -0.1
0.7 1.3 -0.1
0.8 1.3 -0.1
0.9 1.3 -0.1
1 1.3 -0.1
1.1 1.3 -0.1
1.2 1.3 -0.1
1.3 1.3 -0.1
1.4 1.3 -0.1
1.5 1.3 -0.1
1.6 1.3 -0.1
1.7 1.3 -0.1
1.8 1.3 -0.1
1.9 1.3 -0.1
-0.1 1.4 -0.1
0 1.4 -0.1
0.1 1.4 -0.1
0.2 1.4 -0.1
0.3 1.4 -0.1
0.4 1.4 -0.1
0.5 1.4 -0.1
0.6 1.4 -0.1
0.7 1.4 -0.1
0.8 1.4 -0.1
0.9 1.4 -0.1
1 1.4 -0.1
1.1 1.4 -0.1
1.2 1.4 -0.1
1.3 1.4 -0.1
1.4 1.4 -0.1
1.5 1.4 -0.1
1.6 1.4 -0.1
1.7 1.4 -0.1
1.8 1.4 -0.1
1.9 1.4 -0.1
-0.1 1.5 -0.1
0 1.5 -0.1
0.1 1.5 -0.1
0.2 1.5 -0.1
0.3 1.5 -0.1
0.4 1.5 -0.1
0.5 1.5 -0.1
0.6 1.5 -0.1
0.7 1.5 -0.1
0.8 1.5 -0.1
0.9 1.5 -0.1
1 1.5 -0.1
1.1 1.5 -0.1
1.2 1.5 -0.1
1.3 1.5 -0.1
1.4 1.5 -0.1
1.5 1.5 -0.1
1.6 1.5 -0.1
1.7 1.5 -0.1
1.8 1.5 -0.1
1.9 1.5 -0.1
-0.1 1.6 -0.1
0 1.6 -0.1
0.1 1.6 -0.1
0.2 1.6 -0.1
0.3 1.6 -0.1
0.4 1.6 -0.1
0.5 1.6 -0.1
0.6 1.6 -0.1
0.7 1.6 -0.1
0.8 1.6 -0.1
0.9 1.6 -0.1
1 1.6 -0.1
1.1 1.6 -0.1
1.2 1.6 -0.1
1.3 1.6 -0.1
1.4 1.6 -0.1
1.5 1.6 -0.1
1.6 1.6 -0.1
1.7 1.6 -0.1
1.8 1.6 -0.1
1.9 1.6 -0.1
-0.1 1.7 -0.1
0 1.7 -0.1
0.1 1.7 -0.1
0.2 1.7 -0.1
0.3 1.7 -0.1
0.4 1.7 -0.1
0.5 1.7 -0.1
0.6 1.7 -0.1
0.7 1.7 -0.1
0.8 1.7 -0.1
0.9 1.7 -0.1
1 1.7 -0.1
1.1 1.7 -0.1
1.2 1.7 -0.1
1.3 1.7 -0.1
1.4 1.7 -0.1
1.5 1.7 -0.1
1.6 1.7 -0.1
1.7 1.7 -0.1
1.8 1.7 -0.1
1.9 1.7 -0.1
-0.1 1.8 -0.1
0 1.8 -0.1
0.1 1.8 -0.1
0.2 1.8 -0.1
0.3 1.8 -0.1
0.4 1.8 -0.1
0.5 1.8 -0.1
0.6 1.8 -0.1
0.7 1.8 -0.1
0.8 1.8 -0.1
0.9 1.8 -0.1
1 1.8 -0.1
1.1 1.8 -0.1
1.2 1.8 -0.1
1.3 1.8 -0.1
1.4 1.8 -0.1
1.5 1.8 -0.1
1.6 1.8 -0.1
1.7 1.8 -0.1
1.8 1.8 -0.1
1.9 1.8 -0.1
-0.1 1.9 -0.1
0 1.9 -0.1
0.1 1.9 -0.1
0.2 1.9 -0.1
0.3 1.9 -0.1
0.4 1.9 -0.1
0.5 1.9 -0.1
0.6 1.9 -0.1
0.7 1.9 -0.1
0.8 1.9 -0.1
0.9 1.9 -0.1
1 1.9 -0.1
1.1 1.9 -0.1
1.2 1.9 -0.1
1.3 1.9 -0.1
1.4 1.9 -0.1
1.5 1.9 -0.1
1.6 1.9 -0.1
1.7 1.9 -0.1
1.8 1.9 -0.1
1.9 1.9 -0.1
-0.1 -0.1 0
0 -0.1 0
0.1 -0.1 0
0.2 -0.1 0
0.3 -0.1 0
0.4 -0.1 0
0.5 -0.1 0
0.6 -0.1 0
0.7 -0.1 0
0.8 -0.1 0
0.9 -0.1 0
1 -0.1 0
1.1 -0.1 0
1.2 -0.1 0
1.3 -0.1 0
1.4 -0.1 0
1.5 -0.1 0
1.6 -0.1 0
1.7 -0.1 0
1.8 -0.1 0
1.9 -0.1 0
-0.1 0 0
0 0 0
0.1 0 0
0.2 0 0
0.3 0 0
0.4 0 0
0.5 0 0
0.6 0 0
0.7 0 0
0.8 0 0
0.9 0 0
1 0 0
1.1 0 0
1.2 0 0
1.3 0 0
1.4 0 0
1.5 0 0
1.6 0 0
1.7 0 0
1.8 0 0
1.9 0 0
-0.1 0.1 0
0 0.1 0
0.1 0.1 0
0.2 0.1 0
0.3 0.1 0
0.4 0.1 0
0.5 0.1 0
0.6 0.1 0
0.7 0.1 0
0.8 0.1 0
0.9 0.1 0
1 0.1 0
1.1 0.1 0
1.2 0.1 0
1.3 0.1 0
1.4 0.1 0
1.5 0.1 0
1.6 0.1 0
1.7 0.1 0
1.8 0.1 0
1.9 0.1 0
-0.1 0.2 0
0 0.2 0
0.1 0.2 0
0.2 0.2 0
0.3 0.2 0
0.4 0.2 0
0.5 0.2 0
0.6 0.2 0
0.7 0.2 0
0.8 0.2 0
0.9 0.2 0
1 0.2 0
1.1 0.2 0
1.2 0.2 0
1.3 0.2 0
1.4 0.2 0
1.5 0.2 0
1.6 0.2 0
1.7 0.2 0
1.8 0.2 0
1.9 0.2 0
-0.1 0.3 0
0 0.3 0
0.1 0.3 0
0.2 0.3 0
0.3 0.3 0
0.4 0.3 0
0.5 0.3 0
0.6 0.3 0
0.7 0.3 0
0.8 0.3 0
0.9 0.3 0
1 0.3 0
1.1 0.3 0
1.2 0.3 0
1.3 0.3 0
1.4 0.3 0
1.5 0.3 0
1.6 0.3 0
1.7 0.3 0
1.8 0.3 0
1.9 0.3 0
-0.1 0.4 0
0 0.4 0
0.1 0.4 0
0.2 0.4 0
0.3 0.4 0
0.4 0.4 0
0.5 0.4 0
0.6 0.4 0
0.7 0.4 0
0.8 0.4 0
0.9 0.4 0
1 0.4 0
1.1 0.4 0
1.2 0.4 0
1.3 0.4 0
1.4 0.4 0
1.5 0.4 0
1.6 0.4 0
1.7 0.4 0
1.8 0.4 0
1.9 0.4 0
-0.1 0.5 0
0 0.5 0
0.1 0.5 0
0.2 0.5 0
0.3 0.5 0
0.4 0.5 0
0.5 0.5 0
0.6 0.5 0
0.7 0.5 0
0.8 0.5 0
0.9 0.5 0
1 0.5 0
1.1 0.5 0
1.2 0.5 0
1.3 0.5 0
1.4 0.5 0
1.5 0.5 0
1.6 0.5 0
1.7 0.5 0
1.8 0.5 0
1.9 0.5 0
-0.1 0.6 0
0 0.6 0
0.1 0.6 0
0.2 0.6 0
0.3 0.6 0
0.4 0.6 0
0.5 0.6 0
0.6 0.6 0
0.7 0.6 0
0.8 0.6 0
0.9 0.6 0
1 0.6 0
1.1 0.6 0
1.2 0.6 0
1.3 0.6 0
1.4 0.6 0
1.5 0.6 0
1.6 0.6 0
1.7 0.6 0
1.8 0.6 0
1.9 0.6 0
-0.1 0.7 0
0 0.7 0
0.1 0.7 0
0.2 0.7 0
0.3 0.7 0
0.4 0.7 0
0.5 0.7 0
0.6 0.7 0
0.7 0.7 0
0.8 0.7 0
0.9 0.7 0
1 0.7 0
1.1 0.7 0
1.2 0.7 0
1.3 0.7 0
1.4 0.7 0
1.5 0.7 0
1.6 0.7 0
1.7 0.7 0
1.8 0.7 0
1.9 0.7 0
-0.1 0.8 0
0 0.8 0
0.1 0.8 0
0.2 0.8 0
0.3 0.8 0
0.4 0.8 0
0.5 0.8 0
0.6 0.8 0
0.7 0.8 0
0.8 0.8 0
0.9 0.8 0
1 0.8 0
1.1 0.8 0
1.2 0.8 0
1.3 0.8 0
1.4 0.8 0
1.5 0.8 0
1.6 0.8 0
1.7 0.8 0
1.8 0.8 0
1.9 0.8 0
-0.1 0.9 0
0 0.9 0
0.1 0.9 0
0.2 0.9 0
0.3 0.9 0
0.4 0.9 0
0.5 0.9 0
0.6 0.9 0
0.7 0.9 0
0.8 0.9 0
0.9 0.9 0
1 0.9 0
1.1 0.9 0
1.2 0.9 0
1.3 0.9 0
1.4 0.9 0
1.5 0.9 0
1.6 0.9 0
1.7 0.9 0
1.8 0.9 0
1.9 0.9 0
-0.1 1 0
0 1 0
0.1 1 0
0.2 1 0
0.3 1 0
0.4 1 0
0.5 1 0
0.6 1 0
0.7 1 0
0.8 1 0
0.9 1 0
1 1 0
1.1 1 0
1.2 1 0
1.3 1 0
1.4 1 0
1.5 1 0
1.6 1 0
1.7 1 0
1.8 1 0
1.9 1 0
-0.1 1.1 0
0 1.1 0
0.1 1.1 0
0.2 1.1 0
0.3 1.1 0
0.4 1.1 0
0.5 1.1 0
0.6 1.1 0
0.7 1.1 0
0.8 1.1 0
0.9 1.1 0
1 1.1 0
1.1 1.1 0
1.2 1.1 0
1.3 1.1 0
1.4 1.1 0
1.5 1.1 0
1.6 1.1 0
1.7 1.1 0
1.8 1.1 0
1.9 1.1 0
-0.1 1.2 0
0 1.2 0
0.1 1.2 0
0.2 1.2 0
0.3 1.2 0
0.4 1.2 0
0.5 1.2 0
0.6 1.2 0
0.7 1.2 0
0.8 1.2 0
0.9 1.2 0
1 1.2 0
1.1 1.2 0
1.2 1.2 0
1.3 1.2 0
1.4 1.2 0
1.5 1.2 0
1.6 1.2 0
1.7 1.2 0
1.8 1.2 0
1.9 1.2 0
-0.1 1.3 0
0 1.3 0
0.1 1.3 0
0.2 1.3 0
0.3 1.3 0
0.4 1.3 0
0.5 1.3 0
0.6 1.3 0
0.7 1.3 0
0.8 1.3 0
0.9 1.3 0
1 1.3 0
1.1 1.3 0
1.2 1.3 0
1.3 1.3 0
1.4 1.3 0
1.5 1.3 0
1.6 1.3 0
1.7 1.3 0
1.8 1.3 0
1.9 1.3 0
-0.1 1.4 0
0 1.4 0
0.1 1.4 0
0.2 1.4 0
0.3 1.4 0
0.4 1.4 0
0.5 1.4 0
0.6 1.4 0
0.7 1.4 0
0.8 1.4 0
0.9 1.4 0
1 1.4 0
1.1 1.4 0
1.2 1.4 0
1.3 1.4 0
1.4 1.4 0
1.5 1.4 0
1.6 1.4 0
1.7 1.4 0
1.8 1.4 0
1.9 1.4 0
-0.1 1.5 0
0 1.5 0
0.1 1.5 0
0.2 1.5 0
0.3 1.5 0
0.4 1.5 0
0.5 1.5 0
0.6 1.5 0
0.7 1.5 0
0.8 1.5 0
0.9 1.5 0
1 1.5 0
1.1 1.5 0
1.2 1.5 0
1.3 1.5 0
1.4 1.5 0
1.5 1.5 0
1.6 1.5 0
1.7 1.5 0
1.8 1.5 0
1.9 1.5 0
-0.1 1.6 0
0 1.6 0
0.1 1.6 0
0.2 1.6 0
0.3 1.6 0
0.4 1.6 0
0.5 1.6 0
0.6 1.6 0
0.7 1.6 0
0.8 1.6 0
0.9 1.6 0
1 1.6 0
1.1 1.6 0
1.2 1.6 0
1.3 1.6 0
1.4 1.6 0
1.5 1.6 0
1.6 1.6 0
1.7 1.6 0
1.8 1.6 0
1.9 1.6 0
-0.1 1.7 0
0 1.7 0
0.1 1.7 0
0.2 1.7 0
0.3 1.7 0
0.4 1.7 0
0.5 1.7 0
0.6 1.7 0
0.7 1.7 0
0.8 1.7 0
0.9 1.7 0
1 1.7 0
1.1 1.7 0
1.2 1.7 0
1.3 1.7 0
1.4 1.7 0
1.5 1.7 0
1.6 1.7 0
1.7 1.7 0
1.8 1.7 0
1.9 1.7 0
-0.1 1.8 0
0 1.8 0
0.1 1.8 0
0.2 1.8 0
0.3 1.8 0
0.4 1.8 0
0.5 1.8 0
0.6 1.8 0
0.7 1.8 0
0.8 1.8 0
0.9 1.8 0
1 1.8 0
1.1 1.8 0
1.2 1.8 0
1.3 1.8 0
1.4 1.8 0
1.5 1.8 0
1.6 1.8 0
1.7 1.8 0
1.8 1.8 0
1.9 1.8 0
-0.1 1.9 0
0 1.9 0
0.1 1.9 0
0.2 1.9 0
0.3 1.9 0
0.4 1.9 0
0.5 1.9 0
0.6 1.9 0
0.7 1.9 0
0.8 1.9 0
0.9 1.9 0
1 1.9 0
1.1 1.9 0
1.2 1.9 0
1.3 1.9 0
1.4 1.9 0
1.5 1.9 0
1.6 1.9 0
1.7 1.9 0
1.8 1.9 0
[...]
CELL_DATA 4000
VECTORS velocity double 
-1.9276e-05 0.000318342 -0.000299066
-2.36561e-05 0.000373523 -0.00034658
-2.40714e-05 0.000381237 -0.00035665
-2.0582e-05 0.000383658 -0.000361404
-1.38938e-05 0.000384684 -0.000363727
-5.10098e-06 0.000385242 -0.000364829
4.79954e-06 0.000385676 -0.000365313
1.49876e-05 0.000386107 -0.00036546
2.47812e-05 0.000386555 -0.000365371
3.3553e-05 0.000386979 -0.000365025
4.07255e-05 0.000387356 -0.000364331
4.57173e-05 0.000387619 -0.000363154
4.78612e-05 0.000387663 -0.000361378
4.64959e-05 0.000387337 -0.000358915
4.10554e-05 0.000386439 -0.000355745
3.12943e-05 0.000384795 -0.00035188
1.74579e-05 0.000382227 -0.00034739
3.52839e-07 0.000378457 -0.000342396
-1.85581e-05 0.000371545 -0.000335375
-9.27903e-06 0.000324037 -0.000291317
-8.18192e-06 0.000886955 -0.000369065
-1.12941e-05 0.00104986 -0.000437814
-1.3359e-05 0.00107201 -0.000451988
-1.17998e-05 0.00107857 -0.000458321
-6.42926e-06 0.0010811 -0.000461352
1.87563e-06 0.00108229 -0.000462762
1.2077e-05 0.00108314 -0.00046337
2.32036e-05 0.001084 -0.000463553
3.43605e-05 0.00108492 -0.000463442
4.47456e-05 0.00108588 -0.000462989
5.35696e-05 0.00108676 -0.000462084
5.99903e-05 0.00108738 -0.000460555
6.30161e-05 0.0010874 -0.000458281
6.16213e-05 0.00108645 -0.000455145
5.49371e-05 0.00108404 -0.000451065
4.24244e-05 0.00107969 -0.000446038
2.40614e-05 0.00107286 -0.000440166
6.22634e-07 0.00106273 -0.00043358
-2.48946e-05 0.00104227 -0.000424053
-1.24473e-05 0.000892261 -0.000363012
7.85097e-06 0.00161271 -0.000422933
1.17976e-05 0.00193707 -0.000501368
1.11704e-05 0.00198048 -0.000517523
1.19676e-05 0.00199258 -0.000524977
1.5931e-05 0.00199705 -0.000528659
2.27746e-05 0.00199903 -0.000530423
3.16139e-05 0.00200036 -0.000531236
4.1487e-05 0.00200167 -0.000531534
5.14724e-05 0.00200313 -0.000531458
6.06911e-05 0.00200469 -0.000530955
6.82307e-05 0.00200613 -0.000529914
7.30613e-05 0.00200708 -0.000528151
7.39853e-05 0.00200701 -0.000525516
6.97593e-05 0.00200523 -0.000521866
5.92696e-05 0.00200096 -0.000517093
4.17247e-05 0.0019933 -0.000511194
1.68866e-05 0.00198123 -0.000504345
-1.43938e-05 0.00196308 -0.0004968
-4.65903e-05 0.0019229 -0.000486166
-2.32952e-05 0.00161766 -0.000416778
2.58318e-05 0.00246547 -0.000489733
3.93452e-05 0.00300546 -0.000577943
4.13672e-05 0.00307785 -0.000595657
4.17477e-05 0.00309693 -0.000604209
4.42551e-05 0.00310383 -0.000608637
4.93972e-05 0.00310685 -0.000610868
5.65567e-05 0.00310883 -0.00061197
6.48201e-05 0.00311076 -0.000612444
7.32287e-05 0.0031129 -0.000612452
8.0801e-05 0.00311517 -0.000611944
8.6464e-05 0.00311723 -0.0006108
8.89813e-05 0.00311855 -0.000608816
8.692e-05 0.00311838 -0.000605796
7.87822e-05 0.00311575 -0.000601556
6.31459e-05 0.00310947 -0.000596002
3.89001e-05 0.00309813 -0.000589165
5.70079e-06 0.00308021 -0.000581306
-3.49763e-05 0.00305265 -0.000572889
-7.35303e-05 0.00298534 -0.000561437
-3.67652e-05 0.00247091 -0.000482718
4.51173e-05 0.00344137 -0.000568681
6.97708e-05 0.00425289 -0.000667872
7.50977e-05 0.00436325 -0.000686967
7.50677e-05 0.00439094 -0.000696616
7.58334e-05 0.00440079 -0.000701843
7.89154e-05 0.00440516 -0.00070459
8.40456e-05 0.00440803 -0.000706015
9.03869e-05 0.00441079 -0.000706686
9.69379e-05 0.00441379 -0.000706806
0.000102593 0.0044169 -0.000706327
0.0001061 0.00441969 -0.000705105
0.00010602 0.00442149 -0.000702896
0.000100642 0.00442133 -0.000699466
8.81067e-05 0.00441793 -0.000694594
6.66047e-05 0.00440962 -0.000688193
3.47272e-05 0.00439446 -0.000680328
-7.90336e-06 0.00437023 -0.000671392
-5.88198e-05 0.00433163 -0.000662141
-0.000103258 0.00422817 -0.000650081
-5.16288e-05 0.00344828 -0.000560665
6.58021e-05 0.00454748 -0.000658012
0.000102889 0.0056893 -0.000769437
0.000111958 0.00584799 -0.000789787
0.000111383 0.0058861 -0.000800511
0.000110054 0.00589941 -0.000806561
0.000110673 0.0059054 -0.000809836
0.000113397 0.0059094 -0.000811587
0.000117481 0.0059132 -0.000812473
0.000121872 0.00591722 -0.000812734
0.000125355 0.00592132 -0.000812313
0.000126515 0.00592501 -0.00081104
0.000123668 0.00592749 -0.000808618
0.000114757 0.00592757 -0.000804776
9.74892e-05 0.00592359 -0.000799264
6.95993e-05 0.00591339 -0.000791977
2.93278e-05 0.00589441 -0.000783011
-2.36768e-05 0.00586351 -0.000772922
-8.56632e-05 0.00581202 -0.00076287
-0.000135817 0.00566173 -0.000750402
-6.79084e-05 0.00455688 -0.000649027
8.81339e-05 0.00579444 -0.000756073
0.0001389 0.00732911 -0.000880857
0.000152035 0.00754772 -0.000902347
0.000150718 0.00759821 -0.000914103
0.000146907 0.00761537 -0.000920965
0.000144653 0.00762318 -0.00092475
0.000144586 0.00762848 -0.000926824
0.000146066 0.00763346 -0.000927939
0.00014801 0.00763866 -0.000928371
0.000149117 0.00764394 -0.000928044
0.000147804 0.00764878 -0.000926754
0.000142082 0.00765227 -0.00092417
0.000129483 0.00765294 -0.000919968
0.000107206 0.00764875 -0.00091385
7.24482e-05 0.00763702 -0.000905661
2.30377e-05 0.00761444 -0.000895532
-4.13732e-05 0.00757665 -0.000884238
-0.000115492 0.00751012 -0.000873438
-0.000171539 0.00730079 -0.000860734
-8.57694e-05 0.00580733 -0.000746245
0.000112291 0.00719296 -0.000861378
0.000177916 0.00918747 -0.00100049
0.000195346 0.0094787 -0.00102298
0.000193025 0.00954351 -0.00103569
0.000186324 0.00956472 -0.0010433
0.000180783 0.00957437 -0.00104756
0.000177548 0.00958101 -0.00104994
0.000176112 0.00958726 -0.00105129
0.000175396 0.00959378 -0.00105191
0.000174012 0.00960049 -0.00105173
0.000170191 0.00960682 -0.00105048
0.000161582 0.00961176 -0.00104784
0.000145248 0.00961358 -0.00104339
0.000117803 0.00960984 -0.00103674
7.57799e-05 0.00959727 -0.0010277
1.64514e-05 0.00957166 -0.00101641
-6.05737e-05 0.00952698 -0.0010039
-0.000148165 0.00944311 -0.000992387
-0.000210641 0.00916102 -0.000979597
-0.000105321 0.00721051 -0.000850954
0.000138267 0.00875271 -0.000972801
0.000219737 0.0112788 -0.0011271
0.000241513 0.0116563 -0.00115041
0.000237823 0.0117371 -0.00116392
0.000227791 0.0117622 -0.00117218
0.000218565 0.0117735 -0.00117683
0.000211846 0.0117814 -0.00117947
0.000207277 0.0117889 -0.00118103
0.000203803 0.0117968 -0.00118186
0.000199939 0.0118052 -0.00118188
0.000193727 0.0118135 -0.00118078
0.000182417 0.0118205 -0.00117824
0.000162532 0.0118243 -0.00117373
0.000129996 0.0118222 -0.00116672
8.05028e-05 0.01181 -0.00115695
1.05423e-05 0.0117825 -0.00114457
-8.04093e-05 0.0117314 -0.00113087
-0.000183097 0.0116279 -0.00111869
-0.000252912 0.0112579 -0.00110597
-0.000126456 0.00877645 -0.00096219
0.000165766 0.0104829 -0.0010902
0.000263625 0.0136174 -0.00126055
0.000289446 0.0140953 -0.00128444
0.000283849 0.0141934 -0.00129852
0.00027001 0.0142217 -0.00130724
0.000256752 0.0142339 -0.00131214
0.000246333 0.0142427 -0.00131495
0.000238547 0.0142513 -0.00131669
0.000232385 0.0142608 -0.00131771
0.000226257 0.0142711 -0.00131804
0.000218024 0.0142817 -0.00131725
0.000204566 0.0142916 -0.00131498
0.000181787 0.0142988 -0.00131063
0.00014474 0.0143 -0.00130354
8.80049e-05 0.0142903 -0.00129329
6.96828e-06 0.0142631 -0.00128003
-9.92181e-05 0.0142071 -0.00126526
-0.000218977 0.0140819 -0.00125248
-0.000297581 0.0136073 -0.00123991
-0.00014879 0.0105149 -0.00108
0.000194079 0.0123955 -0.00121565
0.000307973 0.0162204 -0.00140328
0.000336896 0.0168129 -0.00142747
0.00032855 0.0169285 -0.00144176
0.000310377 0.0169585 -0.00145064
0.00029284 0.0169705 -0.00145557
0.00027868 0.0169795 -0.00145838
0.0002678 0.0169889 -0.00146024
0.000259244 0.0169997 -0.00146145
0.000251381 0.017012 -0.00146215
0.00024193 0.0170255 -0.00146188
0.000227448 0.0170394 -0.00146014
0.000203183 0.0170516 -0.00145628
0.000163077 0.0170587 -0.0014495
0.000100196 0.0170549 -0.00143921
8.33059e-06 0.0170317 -0.00142547
-0.000114139 0.0169736 -0.00140987
-0.000253286 0.0168257 -0.00139661
-0.000342979 0.0162287 -0.0013842
-0.000171489 0.0124381 -0.00120667
0.00022178 0.0145117 -0.00135577
0.000349678 0.0191151 -0.00156296
0.000379632 0.0198354 -0.0015871
0.000367228 0.0199669 -0.0016011
0.000344177 0.0199957 -0.00160968
0.000322308 0.0200057 -0.00161431
0.000304644 0.0200138 -0.00161689
0.000291102 0.0200234 -0.00161875
0.000280777 0.0200352 -0.00162015
0.000272137 0.0200494 -0.00162119
0.000262892 0.0200662 -0.00162154
0.000249357 0.020085 -0.00162061
0.000226138 0.0201044 -0.00161765
0.000185846 0.0201208 -0.00161173
0.000119529 0.0201278 -0.00160205
1.85608e-05 0.0201146 -0.00158844
-0.000120419 0.0200602 -0.00157249
-0.000281526 0.0198906 -0.00155898
-0.000385951 0.0191524 -0.00154669
-0.000192975 0.0145673 -0.00134909
0.000246186 0.0168756 -0.00152625
0.00038301 0.0223537 -0.0017577
0.000410031 0.023212 -0.00178145
0.000391586 0.0233547 -0.00179438
0.000363182 0.0233778 -0.00180199
0.000337326 0.0233831 -0.00180588
0.000316865 0.0233888 -0.00180793
0.000301602 0.0233974 -0.00180955
0.000290658 0.0234095 -0.00181108
0.00028277 0.0234252 -0.00181252
0.000275891 0.0234452 -0.00181355
0.000266373 0.0234698 -0.00181366
0.000248326 0.0234984 -0.00181203
0.000212937 0.0235282 -0.00180765
0.00014866 0.0235526 -0.00179948
4.31654e-05 0.0235587 -0.00178699
-0.00011049 0.0235183 -0.00177157
-0.000295934 0.0233323 -0.00175827
-0.00042087 0.0224348 -0.00174591
-0.000210435 0.0169459 -0.00152322
0.000262188 0.0195824 -0.0017611
0.000397344 0.026043 -0.00202678
0.000414383 0.0270433 -0.00204976
0.000387061 0.0271874 -0.00206049
0.000353186 0.0271977 -0.00206621
0.000324512 0.0271946 -0.00206877
0.000302814 0.027196 -0.00207003
0.000287552 0.0272024 -0.00207113
0.000277933 0.0272136 -0.00207253
0.000273156 0.0272297 -0.00207425
0.000271767 0.0272521 -0.00207598
0.000270657 0.0272823 -0.0020773
0.00026393 0.0273214 -0.00207742
0.000241643 0.0273685 -0.00207532
0.00018927 0.0274183 -0.00206975
8.90523e-05 0.0274569 -0.00205978
-7.27838e-05 0.0274478 -0.00204632
-0.000283202 0.0272593 -0.00203419
-0.000437174 0.0261885 -0.00202142
-0.000218587 0.0196664 -0.00176333
0.000259586 0.0228356 -0.0021335
0.000372434 0.0304066 -0.00245459
0.000367577 0.0315394 -0.00247655
0.000327758 0.031667 -0.00248342
0.000289356 0.0316546 -0.00248604
0.000260683 0.0316388 -0.00248641
0.000241028 0.0316337 -0.00248645
0.000228989 0.0316363 -0.00248685
0.000223942 0.0316449 -0.00248794
0.000225816 0.0316595 -0.00248973
0.000234248 0.0316823 -0.00249203
0.000247435 0.0317164 -0.00249454
0.000260506 0.0317654 -0.00249665
0.000263501 0.0318319 -0.00249745
0.000239304 0.0319149 -0.00249564
0.000163199 0.0320023 -0.00248998
9.52006e-06 0.0320512 -0.00248066
-0.000220463 0.0318898 -0.0024715
-0.000415082 0.0306451 -0.00245769
-0.000207541 0.0229281 -0.00214293
0.000216846 0.0270773 -0.00280603
0.00026818 0.0359214 -0.00322851
0.000222305 0.0371513 -0.00324951
0.000166408 0.0372324 -0.00325018
0.000127131 0.0371849 -0.00324838
0.000104433 0.0371523 -0.00324588
9.3247e-05 0.0371388 -0.00324416
9.06528e-05 0.0371361 -0.00324351
9.61053e-05 0.0371401 -0.00324401
0.000110492 0.0371507 -0.00324558
0.000135082 0.0371706 -0.00324818
0.000170352 0.0372045 -0.00325164
0.000214127 0.0372592 -0.00325566
0.000258835 0.0373427 -0.00325962
0.000287243 0.0374618 -0.00326247
0.00026815 0.0376136 -0.00326294
0.000158263 0.0377561 -0.00326054
-6.88417e-05 0.0376767 -0.00325736
-0.000315556 0.0362906 -0.00324199
-0.000157778 0.0271657 -0.00282484
8.52039e-05 0.0332981 -0.00415925
1.5787e-06 0.0436377 -0.00478539
-0.00011366 0.0448802 -0.00480705
-0.00018637 0.0448716 -0.00479865
-0.000216507 0.0447769 -0.00479053
-0.000220553 0.044725 -0.00478449
-0.000210422 0.0447023 -0.00478068
-0.000191152 0.0446929 -0.00477872
-0.000163365 0.0446904 -0.00477833
-0.000125224 0.0446939 -0.00477939
-7.35949e-05 0.0447065 -0.00478189
-4.99196e-06 0.044734 -0.00478586
8.30773e-05 0.044786 -0.00479131
0.000189264 0.0448764 -0.00479809
0.000302403 0.0450233 -0.00480571
0.000391448 0.0452424 -0.00481333
0.000394969 0.0455121 -0.00482033
0.000235628 0.0456003 -0.00482672
-5.80351e-05 0.0441785 -0.00480892
-2.90176e-05 0.0333615 -0.00419006
-0.000254437 0.0437614 -0.00707251
-0.000606124 0.0558867 -0.00811888
-0.000823627 0.0569757 -0.00814707
-0.00090084 0.0568301 -0.00812841
-0.000896251 0.0566845 -0.00811276
-0.000853414 0.0566153 -0.00810244
-0.000793662 0.056584 -0.00809614
-0.000724813 0.0565671 -0.00809262
-0.000648073 0.0565565 -0.00809117
-0.000561327 0.0565508 -0.00809151
-0.000460277 0.0565525 -0.00809361
-0.000338713 0.0565674 -0.00809764
-0.000188508 0.0566059 -0.00810385
-7.34643e-07 0.0566851 -0.00811252
0.00022972 0.0568334 -0.00812385
0.000490766 0.0570908 -0.00813772
0.000724278 0.0574831 -0.00815388
0.0007915 0.0578243 -0.00817076
0.000535376 0.0566005 -0.00814659
0.000267688 0.0437804 -0.00711817
-0.00110261 0.0615233 -0.011402
-0.00191345 0.0752801 -0.0129624
-0.00221277 0.0759686 -0.0130085
-0.00221672 0.07569 -0.0129841
-0.00209548 0.0755187 -0.0129613
-0.00192958 0.0754438 -0.0129463
-0.00175033 0.0754081 -0.0129373
-0.00156832 0.0753863 -0.0129321
-0.00138593 0.0753701 -0.0129297
-0.00120179 0.0753579 -0.0129294
-0.00101184 0.075351 -0.0129312
-0.000808727 0.0753535 -0.0129353
-0.000580051 0.075373 -0.0129421
-0.000305694 0.0754238 -0.0129521
4.47571e-05 0.0755336 -0.0129662
0.000508581 0.0757532 -0.0129846
0.00110062 0.0761568 -0.0130061
0.00170619 0.0766936 -0.0130246
0.00185254 0.0759926 -0.0129825
0.000926269 0.0615178 -0.0114653
-0.00290223 0.0307617 0.0425968
-0.00390196 0.0376401 0.0469541
-0.00382003 0.0379843 0.0469622
-0.00340717 0.037845 0.0469662
-0.00295138 0.0377594 0.0469901
-0.00253253 0.0377219 0.0470083
-0.00216336 0.037704 0.0470194
-0.00183904 0.0376931 0.0470261
-0.00155163 0.037685 0.0470297
-0.00129322 0.0376789 0.0470309
-0.00105587 0.0376755 0.0470298
-0.000830155 0.0376768 0.0470259
-0.000602525 0.0376865 0.0470183
-0.000349966 0.0377119 0.0470055
-2.89602e-05 0.0377668 0.0469852
0.000447448 0.0378766 0.046955
0.00124549 0.0380784 0.0469185
0.00258383 0.0383468 0.0469052
0.00411855 0.0379963 0.04689
0.00205927 0.0307589 0.0425384
-2.9023e-05 0.000330206 -0.000717591
-4.23471e-05 0.000390894 -0.000859212
-4.74042e-05 0.000398116 -0.000887019
-4.55473e-05 0.00040009 -0.000899214
-3.85801e-05 0.0004009 -0.000905241
-2.82022e-05 0.000401399 -0.000908249
-1.57593e-05 0.000401867 -0.000909778
-2.28854e-06 0.00040238 -0.000910523
1.13869e-05 0.000402943 -0.000910683
2.45466e-05 0.00040353 -0.00091019
3.65509e-05 0.00040412 -0.000908778
4.66909e-05 0.000404649 -0.000906131
5.41129e-05 0.000404983 -0.000901963
5.7902e-05 0.00040496 -0.000896021
5.72448e-05 0.0004044 -0.000888157
5.16169e-05 0.000403109 -0.000878341
4.09305e-05 0.000400847 -0.000866788
2.57387e-05 0.00039724 -0.000853816
6.80423e-06 0.000389765 -0.000834427
3.40212e-06 0.000334128 -0.000708822
-2.18639e-05 0.000946075 -0.00092975
-3.6211e-05 0.00113822 -0.00113998
-4.43909e-05 0.00116249 -0.00118118
-4.547e-05 0.00116864 -0.0011981
-4.04292e-05 0.00117073 -0.00120613
-3.07536e-05 0.00117169 -0.00121003
-1.78249e-05 0.00117251 -0.00121197
-2.82867e-06 0.00117345 -0.00121291
1.32257e-05 0.00117457 -0.00121312
2.94368e-05 0.00117586 -0.00121245
4.49215e-05 0.00117718 -0.0012106
5.86181e-05 0.00117831 -0.00120715
6.92815e-05 0.00117892 -0.00120172
7.55786e-05 0.00117859 -0.00119394
7.6245e-05 0.00117682 -0.0011835
7.02637e-05 0.00117302 -0.00117029
5.70804e-05 0.00116647 -0.00115445
3.69156e-05 0.00115586 -0.00113607
1.11699e-05 0.00113173 -0.00110686
5.58494e-06 0.000950531 -0.000922536
-5.08904e-06 0.00176419 -0.00109177
-1.14199e-05 0.00216388 -0.00133908
-1.71089e-05 0.00221629 -0.00138804
-1.7942e-05 0.00222892 -0.00140831
-1.34917e-05 0.00223292 -0.00141799
-4.7277e-06 0.00223453 -0.00142272
7.14501e-06 0.00223574 -0.00142512
2.10166e-05 0.00223715 -0.0014263
3.5928e-05 0.00223892 -0.00142659
5.09401e-05 0.00224097 -0.00142583
6.50756e-05 0.00224306 -0.00142368
7.71246e-05 0.00224479 -0.00141967
8.56397e-05 0.00224559 -0.00141331
8.90397e-05 0.00224473 -0.00140413
8.57294e-05 0.00224127 -0.00139174
7.42683e-05 0.00223408 -0.00137599
5.36488e-05 0.00222175 -0.00135704
2.39144e-05 0.0022014 -0.00133496
-1.08053e-05 0.00215049 -0.0013001
-5.40266e-06 0.0017698 -0.0010839
1.52345e-05 0.00275859 -0.00128772
2.0418e-05 0.00344733 -0.00157408
1.90445e-05 0.00354114 -0.00163024
1.92395e-05 0.00356287 -0.00165393
2.33702e-05 0.00356958 -0.0016655
3.12062e-05 0.00357222 -0.00167129
4.18239e-05 0.00357408 -0.00167431
5.42255e-05 0.0035762 -0.00167587
6.74778e-05 0.00357879 -0.00167633
8.05935e-05 0.00358175 -0.00167557
9.249e-05 0.0035847 -0.00167317
0.000101803 0.00358707 -0.00166859
0.000106857 0.00358806 -0.00166121
0.000105738 0.00358657 -0.00165047
9.64329e-05 0.00358115 -0.00163591
7.70011e-05 0.00357001 -0.00161737
4.59984e-05 0.0035508 -0.00159512
3.78816e-06 0.00351798 -0.0015694
-4.05925e-05 0.00342748 -0.00152936
-2.02962e-05 0.0027662 -0.00127826
3.75954e-05 0.0039293 -0.00151669
5.63196e-05 0.00499558 -0.00184723
6.00176e-05 0.00514683 -0.00191081
6.12063e-05 0.00518075 -0.00193806
6.46237e-05 0.00519107 -0.00195168
7.10384e-05 0.00519521 -0.00195864
7.99101e-05 0.00519808 -0.00196236
9.03772e-05 0.00520119 -0.00196436
0.000101538 0.00520484 -0.00196509
0.000112363 0.00520887 -0.0019644
0.000121665 0.00521283 -0.00196181
0.000127898 0.00521598 -0.00195665
0.000129111 0.00521725 -0.00194819
0.000122951 0.00521516 -0.00193579
0.000106872 0.00520768 -0.00191889
7.838e-05 0.00519223 -0.0018973
3.5601e-05 0.00516525 -0.00187146
-2.04958e-05 0.00511684 -0.00184199
-7.45138e-05 0.00497068 -0.00179671
-3.72569e-05 0.00393979 -0.0015056
6.18924e-05 0.00528784 -0.00177465
9.57402e-05 0.0068283 -0.00215462
0.000104916 0.00705598 -0.00222597
0.000106796 0.00710566 -0.00225691
0.000108936 0.00712053 -0.00227265
0.000113305 0.00712663 -0.00228083
0.000119826 0.00713088 -0.00228528
0.000127808 0.00713525 -0.00228778
0.000136404 0.00714017 -0.00228884
0.000144563 0.00714547 -0.0022883
0.000151009 0.00715063 -0.00228557
0.000153978 0.00715476 -0.00227991
0.000151153 0.00715652 -0.00227042
0.000139674 0.00715398 -0.00225633
0.000116378 0.00714451 -0.00223697
7.81082e-05 0.00712462 -0.00221213
2.24898e-05 0.00708911 -0.00218245
-4.86895e-05 0.00702148 -0.00214905
-0.000112469 0.00680032 -0.00209834
-5.62343e-05 0.00530213 -0.00176217
8.83658e-05 0.00684982 -0.00205775
0.000138832 0.0089702 -0.00249206
0.000153769 0.00929615 -0.00257157
0.000155967 0.00936561 -0.00260626
0.000156223 0.00938589 -0.00262411
0.000157891 0.00939433 -0.00263347
0.000161431 0.00940021 -0.00263865
0.000166354 0.00940608 -0.00264169
0.000171911 0.00941248 -0.00264316
0.000177069 0.00941927 -0.00264286
0.000180437 0.0094259 -0.00264014
0.000179995 0.0094313 -0.00263412
0.000172998 0.00943387 -0.00262377
0.000156008 0.00943123 -0.00260808
0.000125134 0.00942007 -0.00258623
7.64115e-05 0.00939588 -0.00255797
6.84023e-06 0.00935123 -0.00252421
-8.07682e-05 0.00926024 -0.00248668
-0.000154742 0.00894152 -0.00243026
-7.7371e-05 0.0068688 -0.00204435
0.000117223 0.00863114 -0.00236219
0.000185754 0.0114468 -0.0028553
0.00020665 0.0118956 -0.00294327
0.00020874 0.0119892 -0.00298166
0.000206478 0.0120156 -0.00300153
0.000204779 0.0120265 -0.00301197
0.000204707 0.0120342 -0.00301784
0.000206028 0.0120417 -0.00302141
0.000208128 0.0120498 -0.00302335
0.000210005 0.0120583 -0.00302345
0.000210124 0.0120668 -0.00302095
0.000206191 0.0120739 -0.00301487
0.000194985 0.0120777 -0.00300395
0.000172395 0.0120756 -0.00298692
0.000133664 0.0120635 -0.00296272
7.3805e-05 0.0120355 -0.00293103
-1.09501e-05 0.0119814 -0.00289303
-0.000116575 0.0118624 -0.00285114
-0.000201535 0.0114204 -0.00278866
-0.000100768 0.0086558 -0.0023486
0.000148484 0.0106461 -0.00268458
0.000236343 0.0142824 -0.00324053
0.000263223 0.0148812 -0.00333713
0.000264667 0.0150032 -0.00337902
0.000259205 0.015036 -0.00340063
0.00025347 0.0150494 -0.00341195
0.000249192 0.0150588 -0.00341836
0.000246439 0.015068 -0.00342244
0.000244732 0.015078 -0.00342492
0.000243134 0.0150885 -0.0034256
0.000239949 0.0150991 -0.00342369
0.000232596 0.0151086 -0.00341796
0.000217368 0.0151147 -0.00340692
0.000189359 0.0151142 -0.003389
0.000142712 0.0151023 -0.00336284