# vtk DataFile Version 2.0 
Visualization 
ASCII 
DATASET STRUCTURED_GRID 
DIMENSIONS 21 21 11
POINTS 4851 float
-0.1 -0.1 -0.1
0 -0.1 -0.1
0.1 -0.1 -0.1
0.2 -0.1 -0.1
0.3 -0.1 -0.1
0.4 -0.1 -0.1
0.5 -0.1 -0.1
0.6 -0.1 -0.1
0.7 -0.1 -0.1
0.8 -0.1 -0.1
0.9 -0.1 -0.1
1 -0.1 -0.1
1.1 -0.1 -0.1
1.2 -0.1 -0.1
1.3 -0.1 -0.1
1.4 -0.1 -0.1
1.5 -0.1 -0.1
1.6 -0.1 -0.1
1.7 -0.1 -0.1
1.8 -0.1 -0.1
1.9 -0.1 -0.1
-0.1 0 -0.1
0 0 -0.1
0.1 0 -0.1
0.2 0 -0.1
0.3 0 -0.1
0.4 0 -0.1
0.5 0 -0.1
0.6 0 -0.1
0.7 0 -0.1
0.8 0 -0.1
0.9 0 -0.1
1 0 -0.1
1.1 0 -0.1
1.2 0 -0.1
1.3 0 -0.1
1.4 0 -0.1
1.5 0 -0.1
1.6 0 -0.1
1.7 0 -0.1
1.8 0 -0.1
1.9 0 -0.1
-0.1 0.1 -0.1
0 0.1 -0.1
0.1 0.1 -0.1
0.2 0.1 -0.1
0.3 0.1 -0.1
0.4 0.1 -0.1
0.5 0.1 -0.1
0.6 0.1 -0.1
0.7 0.1 -0.1
0.8 0.1 -0.1
0.9 0.1 -0.1
1 0.1 -0.1
1.1 0.1 -0.1
1.2 0.1 -0.1
1.3 0.1 -0.1
1.4 0.1 -0.1
1.5 0.1 -0.1
1.6 0.1 -0.1
1.7 0.1 -0.1
1.8 0.1 -0.1
1.9 0.1 -0.1
-0.1 0.2 -0.1
0 0.2 -0.1
0.1 0.2 -0.1
0.2 0.2 -0.1
0.3 0.2 -0.1
0.4 0.2 -0.1
0.5 0.2 -0.1
0.6 0.2 -0.1
0.7 0.2 -0.1
0.8 0.2 -0.1
0.9 0.2 -0.1
1 0.2 -0.1
1.1 0.2 -0.1
1.2 0.2 -0.1
1.3 0.2 -0.1
1.4 0.2 -0.1
1.5 0.2 -0.1
1.6 0.2 -0.1
1.7 0.2 -0.1
1.8 0.2 -0.1
1.9 0.2 -0.1
-0.1 0.3 -0.1
0 0.3 -0.1
0.1 0.3 -0.1
0.2 0.3 -0.1
0.3 0.3 -0.1
0.4 0.3 -0.1
0.5 0.3 -0.1
0.6 0.3 -0.1
0.7 0.3 -0.1
0.8 0.3 -0.1
0.9 0.3 -0.1
1 0.3 -0.1
1.1 0.3 -0.1
1.2 0.3 -0.1
1.3 0.3 -0.1
1.4 0.3 -0.1
1.5 0.3 -0.1
1.6 0.3 -0.1
1.7 0.3 -0.1
1.8 0.3 -0.1
1.9 0.3 -0.1
-0.1 0.4 -0.1
0 0.4 -0.1
0.1 0.4 -0.1
0.2 0.4 -0.1
0.3 0.4 -0.1
0.4 0.4 -0.1
0.5 0.4 -0.1
0.6 0.4 -0.1
0.7 0.4 -0.1
0.8 0.4 -0.1
0.9 0.4 -0.1
1 0.4 -0.1
1.1 0.4 -0.1
1.2 0.4 -0.1
1.3 0.4 -0.1
1.4 0.4 -0.1
1.5 0.4 -0.1
1.6 0.4 -0.1
1.7 0.4 -0.1
1.8 0.4 -0.1
1.9 0.4 -0.1
-0.1 0.5 -0.1
0 0.5 -0.1
0.1 0.5 -0.1
0.2 0.5 -0.1
0.3 0.5 -0.1
0.4 0.5 -0.1
0.5 0.5 -0.1
0.6 0.5 -0.1
0.7 0.5 -0.1
0.8 0.5 -0.1
0.9 0.5 -0.1
1 0.5 -0.1
1.1 0.5 -0.1
1.2 0.5 -0.1
1.3 0.5 -0.1
1.4 0.5 -0.1
1.5 0.5 -0.1
1.6 0.5 -0.1
1.7 0.5 -0.1
1.8 0.5 -0.1
1.9 0.5 -0.1
-0.1 0.6 -0.1
0 0.6 -0.1
0.1 0.6 -0.1
0.2 0.6 -0.1
0.3 0.6 -0.1
0.4 0.6 -0.1
0.5 0.6 -0.1
0.6 0.6 -0.1
0.7 0.6 -0.1
0.8 0.6 -0.1
0.9 0.6 -0.1
1 0.6 -0.1
1.1 0.6 -0.1
1.2 0.6 -0.1
1.3 0.6 -0.1
1.4 0.6 -0.1
1.5 0.6 -0.1
1.6 0.6 -0.1
1.7 0.6 -0.1
1.8 0.6 -0.1
1.9 0.6 -0.1
-0.1 0.7 -0.1
0 0.7 -0.1
0.1 0.7 -0.1
0.2 0.7 -0.1
0.3 0.7 -0.1
0.4 0.7 -0.1
0.5 0.7 -0.1
0.6 0.7 -0.1
0.7 0.7 -0.1
0.8 0.7 -0.1
0.9 0.7 -0.1
1 0.7 -0.1
1.1 0.7 -0.1
1.2 0.7 -0.1
1.3 0.7 -0.1
1.4 0.7 -0.1
1.5 0.7 -0.1
1.6 0.7 -0.1
1.7 0.7 -0.1
1.8 0.7 -0.1
1.9 0.7 -0.1
-0.1 0.8 -0.1
0 0.8 -0.1
0.1 0.8 -0.1
0.2 0.8 -0.1
0.3 0.8 -0.1
0.4 0.8 -0.1
0.5 0.8 -0.1
0.6 0.8 -0.1
0.7 0.8 -0.1
0.8 0.8 -0.1
0.9 0.8 -0.1
1 0.8 -0.1
1.1 0.8 -0.1
1.2 0.8 -0.1
1.3 0.8 -0.1
1.4 0.8 -0.1
1.5 0.8 -0.1
1.6 0.8 -0.1
1.7 0.8 -0.1
1.8 0.8 -0.1
1.9 0.8 -0.1
-0.1 0.9 -0.1
0 0.9 -0.1
0.1 0.9 -0.1
0.2 0.9 -0.1
0.3 0.9 -0.1
0.4 0.9 -0.1
0.5 0.9 -0.1
0.6 0.9 -0.1
0.7 0.9 -0.1
0.8 0.9 -0.1
0.9 0.9 -0.1
1 0.9 -0.1
1.1 0.9 -0.1
1.2 0.9 -0.1
1.3 0.9 -0.1
1.4 0.9 -0.1
1.5 0.9 -0.1
1.6 0.9 -0.1
1.7 0.9 -0.1
1.8 0.9 -0.1
1.9 0.9 -0.1
-0.1 1 -0.1
0 1 -0.1
0.1 1 -0.1
0.2 1 -0.1
0.3 1 -0.1
0.4 1 -0.1
0.5 1 -0.1
0.6 1 -0.1
0.7 1 -0.1
0.8 1 -0.1
0.9 1 -0.1
1 1 -0.1
1.1 1 -0.1
1.2 1 -0.1
1.3 1 -0.1
1.4 1 -0.1
1.5 1 -0.1
1.6 1 -0.1
1.7 1 -0.1
1.8 1 -0.1
1.9 1 -0.1
-0.1 1.1 -0.1
0 1.1 -0.1
0.1 1.1 -0.1
0.2 1.1 -0.1
0.3 1.1 -0.1
0.4 1.1 -0.1
0.5 1.1 -0.1
0.6 1.1 -0.1
0.7 1.1 -0.1
0.8 1.1 -0.1
0.9 1.1 -0.1
1 1.1 -0.1
1.1 1.1 -0.1
1.2 1.1 -0.1
1.3 1.1 -0.1
1.4 1.1 -0.1
1.5 1.1 -0.1
1.6 1.1 -0.1
1.7 1.1 -0.1
1.8 1.1 -0.1
1.9 1.1 -0.1
-0.1 1.2 -0.1
0 1.2 -0.1
0.1 1.2 -0.1
0.2 1.2 -0.1
0.3 1.2 -0.1
0.4 1.2 -0.1
0.5 1.2 -0.1
0.6 1.2 -0.1
0.7 1.2 -0.1
0.8 1.2 -0.1
0.9 1.2 -0.1
1 1.2 -0.1
1.1 1.2 -0.1
1.2 1.2 -0.1
1.3 1.2 -0.1
1.4 1.2 -0.1
1.5 1.2 -0.1
1.6 1.2 -0.1
1.7 1.2 -0.1
1.8 1.2 -0.1
1.9 1.2 -0.1
-0.1 1.3 -0.1
0 1.3 -0.1
0.1 1.3 -0.1
0.2 1.3 -0.1
0.3 1.3 -0.1
0.4 1.3 -0.1
0.5 1.3 -0.1
0.6 1.3 -0.1
0.7 1.3 -0.1
0.8 1.3 -0.1
0.9 1.3 -0.1
1 1.3 -0.1
1.1 1.3 -0.1
1.2 1.3 -0.1
1.3 1.3 -0.1
1.4 1.3 -0.1
1.5 1.3 -0.1
1.6 1.3 -0.1
1.7 1.3 -0.1
1.8 1.3 -0.1
1.9 1.3 -0.1
-0.1 1.4 -0.1
0 1.4 -0.1
0.1 1.4 -0.1
0.2 1.4 -0.1
0.3 1.4 -0.1
0.4 1.4 -0.1
0.5 1.4 -0.1
0.6 1.4 -0.1
0.7 1.4 -0.1
0.8 1.4 -0.1
0.9 1.4 -0.1
1 1.4 -0.1
1.1 1.4 -0.1
1.2 1.4 -0.1
1.3 1.4 -0.1
1.4 1.4 -0.1
1.5 1.4 -0.1
1.6 1.4 -0.1
1.7 1.4 -0.1
1.8 1.4 -0.1
1.9 1.4 -0.1
-0.1 1.5 -0.1
0 1.5 -0.1
0.1 1.5 -0.1
0.2 1.5 -0.1
0.3 1.5 -0.1
0.4 1.5 -0.1
0.5 1.5 -0.1
0.6 1.5 -0.1
0.7 1.5 -0.1
0.8 1.5 -0.1
0.9 1.5 -0.1
1 1.5 -0.1
1.1 1.5 -0.1
1.2 1.5 -0.1
1.3 1.5 -0.1
1.4 1.5 -0.1
1.5 1.5 -0.1
1.6 1.5 -0.1
1.7 1.5 -0.1
1.8 1.5 -0.1
1.9 1.5 -0.1
-0.1 1.6 -0.1
0 1.6 -0.1
0.1 1.6 -0.1
0.2 1.6 -0.1
0.3 1.6 -0.1
0.4 1.6 -0.1
0.5 1.6 -0.1
0.6 1.6 -0.1
0.7 1.6 -0.1
0.8 1.6 -0.1
0.9 1.6 -0.1
1 1.6 -0.1
1.1 1.6 -0.1
1.2 1.6 -0.1
1.3 1.6 -0.1
1.4 1.6 -0.1
1.5 1.6 -0.1
1.6 1.6 -0.1
1.7 1.6 -0.1
1.8 1.6 -0.1
1.9 1.6 -0.1
-0.1 1.7 -0.1
0 1.7 -0.1
0.1 1.7 -0.1
0.2 1.7 -0.1
0.3 1.7 -0.1
0.4 1.7 -0.1
0.5 1.7 -0.1
0.6 1.7 -0.1
0.7 1.7 -0.1
0.8 1.7 -0.1
0.9 1.7 -0.1
1 1.7 -0.1
1.1 1.7 -0.1
1.2 1.7 -0.1
1.3 1.7 -0.1
1.4 1.7 -0.1
1.5 1.7 -0.1
1.6 1.7 -0.1
1.7 1.7 -0.1
1.8 1.7 -0.1
1.9 1.7 -0.1
-0.1 1.8 -0.1
0 1.8 -0.1
0.1 1.8 -0.1
0.2 1.8 -0.1
0.3 1.8 -0.1
0.4 1.8 -0.1
0.5 1.8 -0.1
0.6 1.8 -0.1
0.7 1.8 -0.1
0.8 1.8 -0.1
0.9 1.8 -0.1
1 1.8 -0.1
1.1 1.8 -0.1
1.2 1.8 -0.1
1.3 1.8 -0.1
1.4 1.8 -0.1
1.5 1.8 -0.1
1.6 1.8 -0.1
1.7 1.8 -0.1
1.8 1.8 -0.1
1.9 1.8 -0.1
-0.1 1.9 -0.1
0 1.9 -0.1
0.1 1.9 -0.1
0.2 1.9 -0.1
0.3 1.9 -0.1
0.4 1.9 -0.1
0.5 1.9 -0.1
0.6 1.9 -0.1
0.7 1.9 -0.1
0.8 1.9 -0.1
0.9 1.9 -0.1
1 1.9 -0.1
1.1 1.9 -0.1
1.2 1.9 -0.1
1.3 1.9 -0.1
1.4 1.9 -0.1
1.5 1.9 -0.1
1.6 1.9 -0.1
1.7 1.9 -0.1
1.8 1.9 -0.1
1.9 1.9 -0.1
-0.1 -0.1 0
0 -0.1 0
0.1 -0.1 0
0.2 -0.1 0
0.3 -0.1 0
0.4 -0.1 0
0.5 -0.1 0
0.6 -0.1 0
0.7 -0.1 0
0.8 -0.1 0
0.9 -0.1 0
1 -0.1 0
1.1 -0.1 0
1.2 -0.1 0
1.3 -0.1 0
1.4 -0.1 0
1.5 -0.1 0
1.6 -0.1 0
1.7 -0.1 0
1.8 -0.1 0
1.9 -0.1 0
-0.1 0 0
0 0 0
0.1 0 0
0.2 0 0
0.3 0 0
0.4 0 0
0.5 0 0
0.6 0 0
0.7 0 0
0.8 0 0
0.9 0 0
1 0 0
1.1 0 0
1.2 0 0
1.3 0 0
1.4 0 0
1.5 0 0
1.6 0 0
1.7 0 0
1.8 0 0
1.9 0 0
-0.1 0.1 0
0 0.1 0
0.1 0.1 0
0.2 0.1 0
0.3 0.1 0
0.4 0.1 0
0.5 0.1 0
0.6 0.1 0
0.7 0.1 0
0.8 0.1 0
0.9 0.1 0
1 0.1 0
1.1 0.1 0
1.2 0.1 0
1.3 0.1 0
1.4 0.1 0
1.5 0.1 0
1.6 0.1 0
1.7 0.1 0
1.8 0.1 0
1.9 0.1 0
-0.1 0.2 0
0 0.2 0
0.1 0.2 0
0.2 0.2 0
0.3 0.2 0
0.4 0.2 0
0.5 0.2 0
0.6 0.2 0
0.7 0.2 0
0.8 0.2 0
0.9 0.2 0
1 0.2 0
1.1 0.2 0
1.2 0.2 0
1.3 0.2 0
1.4 0.2 0
1.5 0.2 0
1.6 0.2 0
1.7 0.2 0
1.8 0.2 0
1.9 0.2 0
-0.1 0.3 0
0 0.3 0
0.1 0.3 0
0.2 0.3 0
0.3 0.3 0
0.4 0.3 0
0.5 0.3 0
0.6 0.3 0
0.7 0.3 0
0.8 0.3 0
0.9 0.3 0
1 0.3 0
1.1 0.3 0
1.2 0.3 0
1.3 0.3 0
1.4 0.3 0
1.5 0.3 0
1.6 0.3 0
1.7 0.3 0
1.8 0.3 0
1.9 0.3 0
-0.1 0.4 0
0 0.4 0
0.1 0.4 0
0.2 0.4 0
0.3 0.4 0
0.4 0.4 0
0.5 0.4 0
0.6 0.4 0
0.7 0.4 0
0.8 0.4 0
0.9 0.4 0
1 0.4 0
1.1 0.4 0
1.2 0.4 0
1.3 0.4 0
1.4 0.4 0
1.5 0.4 0
1.6 0.4 0
1.7 0.4 0
1.8 0.4 0
1.9 0.4 0
-0.1 0.5 0
0 0.5 0
0.1 0.5 0
0.2 0.5 0
0.3 0.5 0
0.4 0.5 0
0.5 0.5 0
0.6 0.5 0
0.7 0.5 0
0.8 0.5 0
0.9 0.5 0
1 0.5 0
1.1 0.5 0
1.2 0.5 0
1.3 0.5 0
1.4 0.5 0
1.5 0.5 0
1.6 0.5 0
1.7 0.5 0
1.8 0.5 0
1.9 0.5 0
-0.1 0.6 0
0 0.6 0
0.1 0.6 0
0.2 0.6 0
0.3 0.6 0
0.4 0.6 0
0.5 0.6 0
0.6 0.6 0
0.7 0.6 0
0.8 0.6 0
0.9 0.6 0
1 0.6 0
1.1 0.6 0
1.2 0.6 0
1.3 0.6 0
1.4 0.6 0
1.5 0.6 0
1.6 0.6 0
1.7 0.6 0
1.8 0.6 0
1.9 0.6 0
-0.1 0.7 0
0 0.7 0
0.1 0.7 0
0.2 0.7 0
0.3 0.7 0
0.4 0.7 0
0.5 0.7 0
0.6 0.7 0
0.7 0.7 0
0.8 0.7 0
0.9 0.7 0
1 0.7 0
1.1 0.7 0
1.2 0.7 0
1.3 0.7 0
1.4 0.7 0
1.5 0.7 0
1.6 0.7 0
1.7 0.7 0
1.8 0.7 0
1.9 0.7 0
-0.1 0.8 0
0 0.8 0
0.1 0.8 0
0.2 0.8 0
0.3 0.8 0
0.4 0.8 0
0.5 0.8 0
0.6 0.8 0
0.7 0.8 0
0.8 0.8 0
0.9 0.8 0
1 0.8 0
1.1 0.8 0
1.2 0.8 0
1.3 0.8 0
1.4 0.8 0
1.5 0.8 0
1.6 0.8 0
1.7 0.8 0
1.8 0.8 0
1.9 0.8 0
-0.1 0.9 0
0 0.9 0
0.1 0.9 0
0.2 0.9 0
0.3 0.9 0
0.4 0.9 0
0.5 0.9 0
0.6 0.9 0
0.7 0.9 0
0.8 0.9 0
0.9 0.9 0
1 0.9 0
1.1 0.9 0
1.2 0.9 0
1.3 0.9 0
1.4 0.9 0
1.5 0.9 0
1.6 0.9 0
1.7 0.9 0
1.8 0.9 0
1.9 0.9 0
-0.1 1 0
0 1 0
0.1 1 0
0.2 1 0
0.3 1 0
0.4 1 0
0.5 1 0
0.6 1 0
0.7 1 0
0.8 1 0
0.9 1 0
1 1 0
1.1 1 0
1.2 1 0
1.3 1 0
1.4 1 0
1.5 1 0
1.6 1 0
1.7 1 0
1.8 1 0
1.9 1 0
-0.1 1.1 0
0 1.1 0
0.1 1.1 0
0.2 1.1 0
0.3 1.1 0
0.4 1.1 0
0.5 1.1 0
0.6 1.1 0
0.7 1.1 0
0.8 1.1 0
0.9 1.1 0
1 1.1 0
1.1 1.1 0
1.2 1.1 0
1.3 1.1 0
1.4 1.1 0
1.5 1.1 0
1.6 1.1 0
1.7 1.1 0
1.8 1.1 0
1.9 1.1 0
-0.1 1.2 0
0 1.2 0
0.1 1.2 0
0.2 1.2 0
0.3 1.2 0
0.4 1.2 0
0.5 1.2 0
0.6 1.2 0
0.7 1.2 0
0.8 1.2 0
0.9 1.2 0
1 1.2 0
1.1 1.2 0
1.2 1.2 0
1.3 1.2 0
1.4 1.2 0
1.5 1.2 0
1.6 1.2 0
1.7 1.2 0
1.8 1.2 0
1.9 1.2 0
-0.1 1.3 0
0 1.3 0
0.1 1.3 0
0.2 1.3 0
0.3 1.3 0
0.4 1.3 0
0.5 1.3 0
0.6 1.3 0
0.7 1.3 0
0.8 1.3 0
0.9 1.3 0
1 1.3 0
1.1 1.3 0
1.2 1.3 0
1.3 1.3 0
1.4 1.3 0
1.5 1.3 0
1.6 1.3 0
1.7 1.3 0
1.8 1.3 0
1.9 1.3 0
-0.1 1.4 0
0 1.4 0
0.1 1.4 0
0.2 1.4 0
0.3 1.4 0
0.4 1.4 0
0.5 1.4 0
0.6 1.4 0
0.7 1.4 0
0.8 1.4 0
0.9 1.4 0
1 1.4 0
1.1 1.4 0
1.2 1.4 0
1.3 1.4 0
1.4 1.4 0
1.5 1.4 0
1.6 1.4 0
1.7 1.4 0
1.8 1.4 0
1.9 1.4 0
-0.1 1.5 0
0 1.5 0
0.1 1.5 0
0.2 1.5 0
0.3 1.5 0
0.4 1.5 0
0.5 1.5 0
0.6 1.5 0
0.7 1.5 0
0.8 1.5 0
0.9 1.5 0
1 1.5 0
1.1 1.5 0
1.2 1.5 0
1.3 1.5 0
1.4 1.5 0
1.5 1.5 0
1.6 1.5 0
1.7 1.5 0
1.8 1.5 0
1.9 1.5 0
-0.1 1.6 0
0 1.6 0
0.1 1.6 0
0.2 1.6 0
0.3 1.6 0
0.4 1.6 0
0.5 1.6 0
0.6 1.6 0
0.7 1.6 0
0.8 1.6 0
0.9 1.6 0
1 1.6 0
1.1 1.6 0
1.2 1.6 0
1.3 1.6 0
1.4 1.6 0
1.5 1.6 0
1.6 1.6 0
1.7 1.6 0
1.8 1.6 0
1.9 1.6 0
-0.1 1.7 0
0 1.7 0
0.1 1.7 0
0.2 1.7 0
0.3 1.7 0
0.4 1.7 0
0.5 1.7 0
0.6 1.7 0
0.7 1.7 0
0.8 1.7 0
0.9 1.7 0
1 1.7 0
1.1 1.7 0
1.2 1.7 0
1.3 1.7 0
1.4 1.7 0
1.5 1.7 0
1.6 1.7 0
1.7 1.7 0
1.8 1.7 0
1.9 1.7 0
-0.1 1.8 0
0 1.8 0
0.1 1.8 0
0.2 1.8 0
0.3 1.8 0
0.4 1.8 0
0.5 1.8 0
0.6 1.8 0
0.7 1.8 0
0.8 1.8 0
0.9 1.8 0
1 1.8 0
1.1 1.8 0
1.2 1.8 0
1.3 1.8 0
1.4 1.8 0
1.5 1.8 0
1.6 1.8 0
1.7 1.8 0
1.8 1.8 0
1.9 1.8 0
-0.1 1.9 0
0 1.9 0
0.1 1.9 0
0.2 1.9 0
0.3 1.9 0
0.4 1.9 0
0.5 1.9 0
0.6 1.9 0
0.7 1.9 0
0.8 1.9 0
0.9 1.9 0
1 1.9 0
1.1 1.9 0
1.2 1.9 0
1.3 1.9 0
1.4 1.9 0
1.5 1.9 0
1.6 1.9 0
1.7 1.9 0
1.8 1.9 0
[...]
CELL_DATA 4000
VECTORS velocity double 
-2.45056e-05 0.000295647 -0.000271141
-2.56761e-05 0.000360467 -0.000317706
-2.36893e-05 0.000367528 -0.000326036
-1.78458e-05 0.000369056 -0.000330546
-8.18787e-06 0.000369543 -0.000333041
4.3176e-06 0.000369842 -0.000334384
1.85067e-05 0.000370201 -0.000335058
3.32579e-05 0.000370703 -0.000335234
4.74272e-05 0.000371345 -0.000334985
5.98548e-05 0.000372057 -0.000334298
6.94341e-05 0.000372783 -0.000333081
7.51091e-05 0.00037348 -0.000331202
7.57871e-05 0.00037403 -0.000328602
7.05713e-05 0.000374223 -0.000325328
5.89078e-05 0.000373797 -0.000321531
4.09149e-05 0.000372578 -0.000317316
1.74519e-05 0.000370405 -0.000312805
-9.95079e-06 0.000366996 -0.000308099
-3.93409e-05 0.000360434 -0.00030167
-1.96705e-05 0.000306074 -0.000254474
-1.35718e-05 0.000855759 -0.000344879
-1.49756e-05 0.00103928 -0.000415825
-1.51852e-05 0.00105967 -0.000429259
-1.08743e-05 0.00106413 -0.000435907
-1.40326e-06 0.00106534 -0.000439451
1.23506e-05 0.00106582 -0.000441265
2.90609e-05 0.00106638 -0.000442085
4.73077e-05 0.00106725 -0.000442206
6.55695e-05 0.00106848 -0.000441753
8.23065e-05 0.00106996 -0.000440689
9.60016e-05 0.00107159 -0.000438871
0.000105103 0.00107319 -0.00043612
0.00010793 0.00107434 -0.000432444
0.000102986 0.00107458 -0.000427911
8.93126e-05 0.00107334 -0.000422581
6.67317e-05 0.00107009 -0.000416612
3.59038e-05 0.00106425 -0.000410269
-1.33799e-06 0.00105481 -0.000403696
-4.01244e-05 0.00103397 -0.000394466
-2.00622e-05 0.000862794 -0.000328734
5.66359e-08 0.00158584 -0.000406018
4.22298e-06 0.00194641 -0.000492229
4.63562e-06 0.00198779 -0.000508671
7.89776e-06 0.00199673 -0.000516861
1.60692e-05 0.00199907 -0.000521234
2.87855e-05 0.00199975 -0.000523457
4.48507e-05 0.00200032 -0.000524442
6.28301e-05 0.00200132 -0.000524577
8.11156e-05 0.00200286 -0.000524019
9.80942e-05 0.00200489 -0.000522681
0.000112048 0.00200718 -0.000520425
0.000121098 0.00200935 -0.000517098
0.000123287 0.00201077 -0.000512665
0.000116791 0.0020106 -0.000507169
0.000100351 0.00200801 -0.000500651
7.34515e-05 0.00200204 -0.000493301
3.64438e-05 0.00199151 -0.000485531
-8.8732e-06 0.00197422 -0.00047761
-5.47284e-05 0.00193193 -0.000466958
-2.73642e-05 0.00158697 -0.000389281
1.5244e-05 0.00246326 -0.000484248
2.73133e-05 0.00306187 -0.000587145
2.94911e-05 0.00313343 -0.000606374
3.20308e-05 0.00314866 -0.000616154
3.88611e-05 0.00315271 -0.000621466
5.03283e-05 0.00315371 -0.000624205
6.54469e-05 0.00315421 -0.000625449
8.2799e-05 0.00315515 -0.000625671
0.00010073 0.00315675 -0.000625055
0.000117455 0.00315898 -0.000623506
0.000131051 0.00316154 -0.000620864
0.000139316 0.00316383 -0.000616996
0.000139945 0.00316499 -0.000611774
0.000130856 0.00316396 -0.000605143
0.000110405 0.00315946 -0.000597307
7.76001e-05 0.00314994 -0.000588498
3.24914e-05 0.00313374 -0.000579252
-2.25728e-05 0.00310713 -0.000569934
-7.56236e-05 0.00303529 -0.000557874
-3.78118e-05 0.0024575 -0.000466069
3.23181e-05 0.00348938 -0.000576414
5.42047e-05 0.00439081 -0.000697755
5.89864e-05 0.0045034 -0.000719609
6.08993e-05 0.00452708 -0.000730976
6.61239e-05 0.00453351 -0.000737298
7.59542e-05 0.00453507 -0.00074063
8.97345e-05 0.00453551 -0.000742196
0.00010607 0.00453623 -0.000742572
0.000123263 0.00453766 -0.000741955
0.000139377 0.00453975 -0.000740265
0.000152179 0.00454216 -0.000737319
0.000159203 0.00454414 -0.000732881
0.000157821 0.00454464 -0.000726839
0.000145496 0.00454228 -0.000719085
0.000120042 0.00453524 -0.000709866
8.01165e-05 0.00452153 -0.000699436
2.57023e-05 0.00449876 -0.000688517
-4.0134e-05 0.00446095 -0.000677862
-0.000100235 0.00434978 -0.000664582
-5.01173e-05 0.00347616 -0.000556677
5.16188e-05 0.00467336 -0.00067922
8.53136e-05 0.00594668 -0.000820093
9.35453e-05 0.00611272 -0.000844298
9.48585e-05 0.00614733 -0.000857183
9.81313e-05 0.0061569 -0.000864538
0.000105822 0.00615927 -0.000868511
0.000117698 0.0061597 -0.000870447
0.000132481 0.00616012 -0.000871037
0.000148405 0.00616118 -0.000870516
0.000163371 0.00616289 -0.000868756
0.000174888 0.00616484 -0.000865565
0.000180219 0.00616623 -0.000860613
0.000176302 0.00616577 -0.000853767
0.000160046 0.00616168 -0.000844876
0.000128772 0.00615159 -0.000834219
8.06174e-05 0.00613298 -0.00082225
1.56652e-05 0.00610285 -0.000809639
-6.18636e-05 0.00605177 -0.000797617
-0.000128728 0.00588973 -0.000783336
-6.43641e-05 0.00465245 -0.000658014
7.34182e-05 0.00602498 -0.000789724
0.000121026 0.00774336 -0.000950445
0.000133576 0.00797663 -0.000976562
0.000134315 0.00802485 -0.000990798
0.000135223 0.00803829 -0.000999155
0.000140205 0.00804172 -0.00100376
0.000149561 0.00804221 -0.00100613
0.000162182 0.00804232 -0.00100701
0.000176243 0.00804292 -0.00100665
0.000189498 0.00804415 -0.00100493
0.00019926 0.00804557 -0.00100161
0.000202431 0.00804629 -0.000996276
0.000195436 0.00804473 -0.000988766
0.000174525 0.0080387 -0.000978937
0.000136494 0.00802537 -0.000966871
7.91072e-05 0.0080015 -0.000953257
2.42281e-06 0.00796317 -0.000939053
-8.79314e-05 0.00789624 -0.00092593
-0.000161518 0.00767012 -0.000910885
-8.0759e-05 0.00599661 -0.000767195
9.77766e-05 0.00755161 -0.000905262
0.000161399 0.00979154 -0.00108537
0.000179089 0.0101069 -0.00111279
0.000179234 0.0101714 -0.00112807
0.000177353 0.0101893 -0.00113732
0.000179053 0.0101939 -0.00114254
0.000185297 0.0101946 -0.00114536
0.000195156 0.0101944 -0.00114659
0.000206826 0.0101947 -0.00114651
0.000217917 0.0101955 -0.00114498
0.000225542 0.0101966 -0.00114169
0.000226129 0.0101968 -0.00113621
0.000215583 0.0101944 -0.0011282
0.000189505 0.0101866 -0.00111761
0.000143905 0.0101702 -0.00110449
7.61407e-05 0.0101411 -0.00108944
-1.36905e-05 0.010094 -0.00107378
-0.000118117 0.0100085 -0.0010598
-0.000198607 0.00970349 -0.00104425
-9.93033e-05 0.00751715 -0.000881698
0.000124458 0.0092577 -0.00102392
0.000205924 0.0120979 -0.0012223
0.000229376 0.0125109 -0.00125021
0.000228789 0.0125941 -0.00126611
0.000223697 0.0126165 -0.00127601
0.000221602 0.0126224 -0.00128177
0.000224236 0.0126232 -0.00128502
0.000230914 0.0126229 -0.00128664
0.000239826 0.012623 -0.00128696
0.000248484 0.0126237 -0.00128581
0.000253804 0.0126249 -0.00128274
0.0002517 0.0126252 -0.00127749
0.00023739 0.0126228 -0.00126944
0.00020584 0.0126143 -0.00125835
0.000152174 0.0125958 -0.00124442
7.30833e-05 0.0125623 -0.00122825
-3.13431e-05 0.0125066 -0.00121145
-0.000151273 0.0123999 -0.0011968
-0.000238999 0.0119998 -0.00118113
-0.000119499 0.00922031 -0.000999974
0.000152793 0.0111469 -0.00114563
0.000253209 0.0146669 -0.0013608
0.000282605 0.0151931 -0.00138818
0.000280968 0.0152967 -0.00140409
0.000272234 0.0153233 -0.00141433
0.000265977 0.0153299 -0.00142044
0.000264705 0.0153307 -0.00142406
0.000267975 0.0153303 -0.00142612
0.00027408 0.0153304 -0.00142691
0.000280428 0.0153317 -0.00142635
0.00028365 0.0153338 -0.00142381
0.000279275 0.0153355 -0.00141899
0.000261768 0.0153346 -0.00141138
0.00022513 0.0153275 -0.00140045
0.000163453 0.0153092 -0.00138625
7.24884e-05 0.0152734 -0.00136948
-4.7793e-05 0.0152105 -0.00135204
-0.000184914 0.0150806 -0.0013371
-0.000280925 0.0145681 -0.00132158
-0.000140463 0.011112 -0.0011222
0.000181498 0.0132273 -0.00127407
0.000300683 0.0175069 -0.00150487
0.000335316 0.0181611 -0.00153063
0.000331957 0.0182853 -0.00154577
0.000319136 0.0183146 -0.00155589
0.000308512 0.0183208 -0.00156209
0.000303361 0.018321 -0.00156591
0.00030346 0.0183204 -0.00156839
0.00030721 0.0183211 -0.00156967
0.000311931 0.0183235 -0.00156984
0.000313995 0.0183276 -0.00156831
0.000308554 0.0183324 -0.00156448
0.000289345 0.0183355 -0.00155779
0.000249194 0.0183331 -0.00154766
0.000180706 0.0183191 -0.00153399
7.82011e-05 0.0182855 -0.00151739
-5.86802e-05 0.0182186 -0.00149992
-0.000214863 0.0180648 -0.00148532
-0.00032125 0.0174217 -0.00147031
-0.000160625 0.0132028 -0.00125222
0.00020844 0.0155225 -0.00142013
0.00034389 0.0206417 -0.00166698
0.000381577 0.0214362 -0.00169005
0.000375167 0.0215791 -0.00170351
0.000357803 0.0216079 -0.00171286
0.000342966 0.0216118 -0.00171877
0.000334467 0.0216105 -0.00172259
0.000332222 0.0216095 -0.00172542
0.00033463 0.0216108 -0.00172727
0.000339121 0.021615 -0.00172819
0.000341961 0.0216223 -0.0017278
0.000337909 0.0216323 -0.0017254
0.000320005 0.0216427 -0.00172027
0.00027968 0.0216498 -0.00171175
0.00020755 0.0216464 -0.00169959
9.57054e-05 0.0216222 -0.0016842
-5.74127e-05 0.0215585 -0.00166757
-0.000234631 0.0213827 -0.00165395
-0.000354815 0.0205908 -0.00163971
-0.000177407 0.0155184 -0.00140118
0.000230087 0.0180911 -0.00160787
0.000375408 0.0241329 -0.00187507
0.000411526 0.0250761 -0.00189463
0.000399823 0.0252317 -0.00190532
0.000377499 0.0252548 -0.00191312
0.000359095 0.0252534 -0.00191825
0.000348483 0.0252492 -0.00192173
0.000345464 0.0252471 -0.00192459
0.000348411 0.0252489 -0.00192701
0.000354861 0.0252552 -0.00192885
0.00036138 0.0252668 -0.0019297
0.000362643 0.0252839 -0.001929
0.000351115 0.0253054 -0.00192601
0.000316665 0.0253277 -0.00192
0.000247339 0.0253435 -0.00191047
0.00013178 0.02534 -0.0018976
-3.47372e-05 0.0252915 -0.00188317
-0.000234438 0.0251008 -0.00187147
-0.000373983 0.0241438 -0.00185774
-0.000186992 0.0181189 -0.00159311
0.000240466 0.0210644 -0.00188627
0.000382821 0.0281215 -0.00218607
0.000408964 0.0292142 -0.00220187
0.000388535 0.0293709 -0.00220855
0.000361139 0.0293801 -0.00221379
0.000340751 0.0293692 -0.00221752
0.000330256 0.02936 -0.00222034
0.000328879 0.0293558 -0.00222292
0.000335045 0.0293575 -0.00222553
0.00034671 0.0293657 -0.00222808
0.000360952 0.0293819 -0.00223018
0.000372911 0.0294073 -0.00223136
0.00037501 0.0294426 -0.00223093
0.000355904 0.0294859 -0.00222819
0.000300662 0.029531 -0.00222243
0.000192766 0.0295637 -0.00221355
2.09943e-05 0.0295499 -0.00220294
-0.000200152 0.0293605 -0.00219438
-0.000366988 0.0282282 -0.00218057
-0.000183494 0.0211349 -0.00187665
0.000228879 0.0247204 -0.00235495
0.000344605 0.0329089 -0.0027152
0.000346853 0.0341383 -0.00272813
0.00031304 0.0342758 -0.00272949
0.000281314 0.0342596 -0.00273107
0.000262019 0.034234 -0.00273256
0.000255414 0.0342174 -0.0027342
0.000259528 0.0342099 -0.00273626
0.000272697 0.0342103 -0.0027388
0.000293611 0.0342193 -0.0027417
0.000320363 0.0342388 -0.00274473
0.00034949 0.0342718 -0.00274758
0.000374473 0.0343214 -0.00274973
0.000383994 0.0343893 -0.00275057
0.000360593 0.0344733 -0.00274943
0.000280962 0.0345606 -0.00274595
0.000122498 0.03461 -0.00274099
-0.000111829 0.0344534 -0.00273705
-0.00031537 0.0331493 -0.00272186
-0.000157685 0.0248398 -0.00235063
0.000174336 0.0296446 -0.00322723
0.000221206 0.0391295 -0.00370721
0.000178006 0.0404587 -0.00372009
0.000125778 0.0405447 -0.00371476
9.27559e-05 0.0404888 -0.00371158
8.03341e-05 0.0404433 -0.00371001
8.37748e-05 0.0404173 -0.00370977
9.91722e-05 0.0404048 -0.00371069
0.000124739 0.0404024 -0.00371257
0.000160007 0.0404098 -0.00371524
0.000204759 0.0404298 -0.00371864
0.000258052 0.0404667 -0.00372257
0.000316286 0.040527 -0.00372679
0.000370754 0.0406177 -0.00373098
0.000404064 0.0407441 -0.00373463
0.000386674 0.0409018 -0.00373745
0.000279174 0.0410497 -0.00373984
5.79631e-05 0.0409806 -0.00374237
-0.000188131 0.0395393 -0.00372324
-9.40654e-05 0.0298074 -0.00322685
3.10842e-05 0.0371177 -0.00499847
-6.53632e-05 0.0481535 -0.00572233
-0.000183947 0.0495022 -0.0057415
-0.00025641 0.0494916 -0.00572821
-0.000281762 0.0493824 -0.00571898
-0.00027593 0.0493139 -0.00571357
-0.000251595 0.0492775 -0.00571082
-0.000215211 0.0492588 -0.0057099
-0.000168722 0.0492514 -0.00571038
-0.000111599 0.0492543 -0.0057121
-4.18513e-05 0.04927 -0.00571503
4.30188e-05 0.0493041 -0.00571912
0.000144577 0.0493657 -0.0057244
0.000260892 0.0494679 -0.00573087
0.000380918 0.0496269 -0.0057385
0.000475547 0.0498559 -0.00574736
0.00048862 0.0501322 -0.00575773
0.000348485 0.0502295 -0.00576819
7.46815e-05 0.0487488 -0.00574036
3.73407e-05 0.0372962 -0.00499902
-0.000311888 0.050058 -0.00884849
-0.000679202 0.0630077 -0.0100517
-0.000902664 0.0642241 -0.0100893
-0.000980295 0.0640704 -0.0100686
-0.000971585 0.063905 -0.0100527
-0.000921288 0.0638168 -0.0100428
-0.000852326 0.0637713 -0.0100368
-0.000773735 0.0637458 -0.0100333
-0.0006876 0.0637317 -0.0100318
-0.000592396 0.0637269 -0.0100319
-0.00048408 0.0637335 -0.0100335
-0.000356518 0.0637568 -0.0100367
-0.000201542 0.0638065 -0.0100419
-9.99861e-06 0.0638989 -0.0100492
0.000223691 0.0640603 -0.0100591
0.000489229 0.064327 -0.0100721
0.000734306 0.0647203 -0.0100885
0.000830496 0.0650565 -0.0101056
0.000621869 0.063741 -0.0100605
0.000310934 0.0502008 -0.00884741
-0.00114136 0.0731912 -0.0154784
-0.00195092 0.0878446 -0.0170917
-0.00223737 0.0886899 -0.017152
-0.0022253 0.088405 -0.0171297
-0.00209107 0.0882176 -0.0171088
-0.00191838 0.0881279 -0.0170945
-0.0017392 0.0880813 -0.0170852
-0.00156336 0.0880533 -0.0170793
-0.00139188 0.0880349 -0.0170758
-0.00122176 0.0880239 -0.0170744
-0.00104728 0.0880214 -0.0170748
-0.0008595 0.0880306 -0.0170773
-0.000644546 0.0880587 -0.0170823
-0.000381018 0.0881194 -0.0170903
-3.77583e-05 0.0882383 -0.017102
0.000422909 0.0884621 -0.0171178
0.00101791 0.0888574 -0.0171369
0.0016428 0.0893665 -0.0171529
0.00184637 0.0885052 -0.0170882
0.000923187 0.0732657 -0.015482
-0.00273963 0.0365956 0.0509881
-0.00369211 0.0439223 0.0560376
-0.00359035 0.0443449 0.0561058
-0.00317397 0.0442025 0.0561098
-0.00272423 0.0441088 0.0561292
-0.0023193 0.0440639 0.0561452
-0.0019711 0.0440407 0.0561559
-0.00167347 0.0440266 0.0561626
-0.0014166 0.0440174 0.0561666
-0.00119036 0.044012 0.0561683
-0.000984594 0.0440107 0.0561677
-0.000788119 0.0440153 0.0561643
-0.000585929 0.0440294 0.0561573
-0.000353987 0.0440597 0.0561449
-4.89085e-05 0.0441191 0.0561249
0.000413105 0.0442311 0.0560951
0.00118904 0.0444287 0.0560584
0.00248487 0.0446833 0.0560364
0.00391179 0.0442526 0.0559617
0.0019559 0.0366329 0.0509762
-2.94332e-05 0.000317447 -0.000640896
-4.02516e-05 0.000386758 -0.000779071
-4.39485e-05 0.000393055 -0.000804183
-4.01044e-05 0.000393898 -0.000816343
-2.97339e-05 0.000394041 -0.000823165
-1.45102e-05 0.000394256 -0.000827073
3.93376e-06 0.000394703 -0.000829274
2.40622e-05 0.000395409 -0.0008303
4.44068e-05 0.000396331 -0.000830266
6.35395e-05 0.000397413 -0.000829047
8.00738e-05 0.000398621 -0.000826346
9.2574e-05 0.000399921 -0.000821863
9.94584e-05 0.000401094 -0.000815482
9.92562e-05 0.000401877 -0.000807252
9.10137e-05 0.000402075 -0.00079738
7.45226e-05 0.000401449 -0.000786161
5.04007e-05 0.000399666 -0.000774116
2.0146e-05 0.000396303 -0.000761538
-1.43242e-05 0.000388735 -0.000743325
-7.16211e-06 0.000326052 -0.000617851
-2.29027e-05 0.000930225 -0.000860321
-3.66095e-05 0.00114157 -0.00107403
-4.43958e-05 0.00116333 -0.00111464
-4.34161e-05 0.00116666 -0.00113293
-3.39093e-05 0.00116707 -0.0011427
-1.74281e-05 0.00116723 -0.00114802
4.25299e-06 0.00116781 -0.00115081
2.93058e-05 0.00116899 -0.00115192
5.58917e-05 0.00117075 -0.00115153
8.2151e-05 0.00117302 -0.00114946
0.000106196 0.00117571 -0.00114531
0.000125833 0.00117856 -0.00113869
0.000138664 0.00118109 -0.00112947
0.000142472 0.00118274 -0.00111765
0.000135545 0.00118293 -0.00110341
0.000116953 0.00118095 -0.00108708
8.68091e-05 0.00117584 -0.0010694
4.66459e-05 0.00116605 -0.00105051
3.10664e-07 0.00114074 -0.00102159
1.55332e-07 0.000937135 -0.000832757
-9.28903e-06 0.00175979 -0.00104322
-1.75222e-05 0.00219548 -0.00130911
-2.45726e-05 0.00224444 -0.00136032
-2.42816e-05 0.00225255 -0.00138322
-1.55713e-05 0.00225375 -0.00139526
4.51281e-07 0.0022538 -0.00140167
2.21282e-05 0.00225426 -0.0014049
4.76458e-05 0.00225559 -0.00140605
7.51464e-05 0.00225787 -0.0014054
0.000102673 0.00226104 -0.00140268
0.000128091 0.00226487 -0.00139746
0.000148878 0.00226889 -0.00138934
0.000162291 0.00227239 -0.00137805
0.000165703 0.00227449 -0.00136349
0.000156913 0.00227402 -0.00134581
0.000134347 0.00226967 -0.0013255
9.7527e-05 0.00225972 -0.00130334
4.75309e-05 0.00224078 -0.00127959
-9.21275e-06 0.00218683 -0.00124343
-4.60637e-06 0.00176239 -0.00101105
7.41697e-06 0.00279174 -0.00127174
7.84766e-06 0.00354302 -0.00159616
3.27062e-06 0.00363398 -0.0016582
3.73634e-06 0.00364981 -0.00168603
1.21183e-05 0.00365262 -0.00170066
2.79305e-05 0.00365274 -0.00170839
4.96997e-05 0.00365297 -0.00171226
7.56281e-05 0.0036542 -0.00171361
0.000103826 0.00365665 -0.00171278
0.000132171 0.00366026 -0.00170952
0.000158253 0.00366473 -0.00170331
0.000179274 0.00366939 -0.00169364
0.000192121 0.00367325 -0.00168009
0.000193595 0.00367509 -0.00166248
0.000180962 0.00367313 -0.00164096
0.000151931 0.00366533 -0.00161624
0.000105449 0.00364911 -0.00158918
4.26312e-05 0.00361826 -0.00156011
-2.58656e-05 0.00352224 -0.00151659
-1.29328e-05 0.00278823 -0.00123403
2.69968e-05 0.00403488 -0.0015396
3.87421e-05 0.00520339 -0.0019296
3.78822e-05 0.00535456 -0.00200288
3.8867e-05 0.0053818 -0.00203587
4.6819e-05 0.0053873 -0.00205334
6.21505e-05 0.00538781 -0.00206258
8.36791e-05 0.00538782 -0.00206723
0.000109662 0.00538874 -0.00206893
0.000138142 0.00539101 -0.00206805
0.000166863 0.00539463 -0.00206437
0.000193157 0.00539917 -0.00205726
0.000213854 0.00540389 -0.00204604
0.000225478 0.00540753 -0.00203007
0.000224166 0.00540838 -0.00200925
0.000206452 0.00540403 -0.00198366
0.000169375 0.00539158 -0.00195405
0.000111292 0.00536749 -0.00192166
3.3683e-05 0.00532141 -0.00188711
-4.71155e-05 0.00516662 -0.001836
-2.35577e-05 0.00402392 -0.0014963
4.98702e-05 0.00550556 -0.00183864
7.57284e-05 0.00720379 -0.00229939
7.98483e-05 0.00743685 -0.002384
8.158e-05 0.00747998 -0.00242222
8.88248e-05 0.00748944 -0.0024426
0.000103162 0.0074908 -0.00245348
0.000123804 0.00749064 -0.00245903
0.00014913 0.00749113 -0.00246121
0.000177171 0.00749296 -0.0024605
0.000205503 0.00749618 -0.00245656
0.000231272 0.00750035 -0.00244866
0.000250949 0.00750462 -0.00243601
0.000260549 0.00750742 -0.00241776
0.00025548 0.00750649 -0.00239373
0.000231414 0.00749886 -0.00236402
0.000184788 0.00748071 -0.00232937
0.000113393 0.00744711 -0.00229139
1.92282e-05 0.00738159 -0.00225128
-7.41894e-05 0.00714788 -0.00219239
-3.70947e-05 0.00548636 -0.00178999
7.64983e-05 0.00722013 -0.00216113
0.000119532 0.00957109 -0.00269562
0.000129981 0.00991105 -0.0027912
0.000132687 0.00997523 -0.00283444
0.000138888 0.00999007 -0.00285769
0.000151581 0.00999275 -0.00287022
0.000170556 0.00999259 -0.00287679
0.000194377 0.00999263 -0.00287961
0.000221062 0.00999385 -0.00287925
0.000248104 0.00999644 -0.00287535
0.000272484 0.01 -0.00286695
0.000290273 0.0100035 -0.00285322
0.000296837 0.0100051 -0.00283306
0.000286995 0.0100019 -0.00280602
0.000255397 0.00999015 -0.00277224
0.000197637 0.00996526 -0.00273256
0.000110986 0.00992043 -0.00268896
-1.56239e-06 0.0098305 -0.00264335
-0.000107946 0.00949405 -0.00257671
-5.39729e-05 0.00719243 -0.0021077
0.000107124 0.00919109 -0.00249951
0.000170511 0.0123272 -0.00310841
0.000188691 0.0128021 -0.00321402
0.000192585 0.012893 -0.00326173
0.000197337 0.0129146 -0.00328761
0.000207715 0.0129191 -0.00330172
0.000224206 0.0129191 -0.00330935
0.000245591 0.0129188 -0.00331298
0.000269999 0.0129195 -0.00331321
0.000294888 0.0129215 -0.00330968
0.000316994 0.0129244 -0.00330129
0.000332071 0.012927 -0.00328697
0.000334691 0.0129272 -0.00326555
0.000318909 0.0129217 -0.00323618
0.00027852 0.0129057 -0.00319879
0.00020806 0.0128735 -0.00315441
0.000104089 0.0128158 -0.00310547
-2.88215e-05 0.0126959 -0.00305451
-0.00014859 0.0122293 -0.00298015
-7.42951e-05 0.00915578 -0.00244225
0.000141608 0.0114254 -0.0028472
0.000228356 0.0154866 -0.00352894
0.000255482 0.0161272 -0.00364306
0.000260675 0.0162507 -0.00369428
0.000263546 0.0162802 -0.00372226
0.000270931 0.0162868 -0.00373772
0.000284145 0.0162872 -0.00374633
0.000302296 0.0162867 -0.00375085
0.000323628 0.016287 -0.00375197
0.000345637 0.0162886 -0.0037493
0.000364706 0.0162913 -0.00374167
0.000376325 0.0162937 -0.00372757
0.000374454 0.0162931 -0.00370567
0.000352078 0.0162857 -0.0036749
0.000301881 0.0162661 -0.00363488
0.000217197 0.0162267 -0.00358662