# vtk DataFile Version 2.0 
Visualization 
ASCII 
DATASET STRUCTURED_GRID 
DIMENSIONS 21 21 11
POINTS 4851 float
-0.1 -0.1 0.9
0 -0.1 0.9
0.1 -0.1 0.9
0.2 -0.1 0.9
0.3 -0.1 0.9
0.4 -0.1 0.9
0.5 -0.1 0.9
0.6 -0.1 0.9
0.7 -0.1 0.9
0.8 -0.1 0.9
0.9 -0.1 0.9
1 -0.1 0.9
1.1 -0.1 0.9
1.2 -0.1 0.9
1.3 -0.1 0.9
1.4 -0.1 0.9
1.5 -0.1 0.9
1.6 -0.1 0.9
1.7 -0.1 0.9
1.8 -0.1 0.9
1.9 -0.1 0.9
-0.1 0 0.9
0 0 0.9
0.1 0 0.9
0.2 0 0.9
0.3 0 0.9
0.4 0 0.9
0.5 0 0.9
0.6 0 0.9
0.7 0 0.9
0.8 0 0.9
0.9 0 0.9
1 0 0.9
1.1 0 0.9
1.2 0 0.9
1.3 0 0.9
1.4 0 0.9
1.5 0 0.9
1.6 0 0.9
1.7 0 0.9
1.8 0 0.9
1.9 0 0.9
-0.1 0.1 0.9
0 0.1 0.9
0.1 0.1 0.9
0.2 0.1 0.9
0.3 0.1 0.9
0.4 0.1 0.9
0.5 0.1 0.9
0.6 0.1 0.9
0.7 0.1 0.9
0.8 0.1 0.9
0.9 0.1 0.9
1 0.1 0.9
1.1 0.1 0.9
1.2 0.1 0.9
1.3 0.1 0.9
1.4 0.1 0.9
1.5 0.1 0.9
1.6 0.1 0.9
1.7 0.1 0.9
1.8 0.1 0.9
1.9 0.1 0.9
-0.1 0.2 0.9
0 0.2 0.9
0.1 0.2 0.9
0.2 0.2 0.9
0.3 0.2 0.9
0.4 0.2 0.9
0.5 0.2 0.9
0.6 0.2 0.9
0.7 0.2 0.9
0.8 0.2 0.9
0.9 0.2 0.9
1 0.2 0.9
1.1 0.2 0.9
1.2 0.2 0.9
1.3 0.2 0.9
1.4 0.2 0.9
1.5 0.2 0.9
1.6 0.2 0.9
1.7 0.2 0.9
1.8 0.2 0.9
1.9 0.2 0.9
-0.1 0.3 0.9
0 0.3 0.9
0.1 0.3 0.9
0.2 0.3 0.9
0.3 0.3 0.9
0.4 0.3 0.9
0.5 0.3 0.9
0.6 0.3 0.9
0.7 0.3 0.9
0.8 0.3 0.9
0.9 0.3 0.9
1 0.3 0.9
1.1 0.3 0.9
1.2 0.3 0.9
1.3 0.3 0.9
1.4 0.3 0.9
1.5 0.3 0.9
1.6 0.3 0.9
1.7 0.3 0.9
1.8 0.3 0.9
1.9 0.3 0.9
-0.1 0.4 0.9
0 0.4 0.9
0.1 0.4 0.9
0.2 0.4 0.9
0.3 0.4 0.9
0.4 0.4 0.9
0.5 0.4 0.9
0.6 0.4 0.9
0.7 0.4 0.9
0.8 0.4 0.9
0.9 0.4 0.9
1 0.4 0.9
1.1 0.4 0.9
1.2 0.4 0.9
1.3 0.4 0.9
1.4 0.4 0.9
1.5 0.4 0.9
1.6 0.4 0.9
1.7 0.4 0.9
1.8 0.4 0.9
1.9 0.4 0.9
-0.1 0.5 0.9
0 0.5 0.9
0.1 0.5 0.9
0.2 0.5 0.9
0.3 0.5 0.9
0.4 0.5 0.9
0.5 0.5 0.9
0.6 0.5 0.9
0.7 0.5 0.9
0.8 0.5 0.9
0.9 0.5 0.9
1 0.5 0.9
1.1 0.5 0.9
1.2 0.5 0.9
1.3 0.5 0.9
1.4 0.5 0.9
1.5 0.5 0.9
1.6 0.5 0.9
1.7 0.5 0.9
1.8 0.5 0.9
1.9 0.5 0.9
-0.1 0.6 0.9
0 0.6 0.9
0.1 0.6 0.9
0.2 0.6 0.9
0.3 0.6 0.9
0.4 0.6 0.9
0.5 0.6 0.9
0.6 0.6 0.9
0.7 0.6 0.9
0.8 0.6 0.9
0.9 0.6 0.9
1 0.6 0.9
1.1 0.6 0.9
1.2 0.6 0.9
1.3 0.6 0.9
1.4 0.6 0.9
1.5 0.6 0.9
1.6 0.6 0.9
1.7 0.6 0.9
1.8 0.6 0.9
1.9 0.6 0.9
-0.1 0.7 0.9
0 0.7 0.9
0.1 0.7 0.9
0.2 0.7 0.9
0.3 0.7 0.9
0.4 0.7 0.9
0.5 0.7 0.9
0.6 0.7 0.9
0.7 0.7 0.9
0.8 0.7 0.9
0.9 0.7 0.9
1 0.7 0.9
1.1 0.7 0.9
1.2 0.7 0.9
1.3 0.7 0.9
1.4 0.7 0.9
1.5 0.7 0.9
1.6 0.7 0.9
1.7 0.7 0.9
1.8 0.7 0.9
1.9 0.7 0.9
-0.1 0.8 0.9
0 0.8 0.9
0.1 0.8 0.9
0.2 0.8 0.9
0.3 0.8 0.9
0.4 0.8 0.9
0.5 0.8 0.9
0.6 0.8 0.9
0.7 0.8 0.9
0.8 0.8 0.9
0.9 0.8 0.9
1 0.8 0.9
1.1 0.8 0.9
1.2 0.8 0.9
1.3 0.8 0.9
1.4 0.8 0.9
1.5 0.8 0.9
1.6 0.8 0.9
1.7 0.8 0.9
1.8 0.8 0.9
1.9 0.8 0.9
-0.1 0.9 0.9
0 0.9 0.9
0.1 0.9 0.9
0.2 0.9 0.9
0.3 0.9 0.9
0.4 0.9 0.9
0.5 0.9 0.9
0.6 0.9 0.9
0.7 0.9 0.9
0.8 0.9 0.9
0.9 0.9 0.9
1 0.9 0.9
1.1 0.9 0.9
1.2 0.9 0.9
1.3 0.9 0.9
1.4 0.9 0.9
1.5 0.9 0.9
1.6 0.9 0.9
1.7 0.9 0.9
1.8 0.9 0.9
1.9 0.9 0.9
-0.1 1 0.9
0 1 0.9
0.1 1 0.9
0.2 1 0.9
0.3 1 0.9
0.4 1 0.9
0.5 1 0.9
0.6 1 0.9
0.7 1 0.9
0.8 1 0.9
0.9 1 0.9
1 1 0.9
1.1 1 0.9
1.2 1 0.9
1.3 1 0.9
1.4 1 0.9
1.5 1 0.9
1.6 1 0.9
1.7 1 0.9
1.8 1 0.9
1.9 1 0.9
-0.1 1.1 0.9
0 1.1 0.9
0.1 1.1 0.9
0.2 1.1 0.9
0.3 1.1 0.9
0.4 1.1 0.9
0.5 1.1 0.9
0.6 1.1 0.9
0.7 1.1 0.9
0.8 1.1 0.9
0.9 1.1 0.9
1 1.1 0.9
1.1 1.1 0.9
1.2 1.1 0.9
1.3 1.1 0.9
1.4 1.1 0.9
1.5 1.1 0.9
1.6 1.1 0.9
1.7 1.1 0.9
1.8 1.1 0.9
1.9 1.1 0.9
-0.1 1.2 0.9
0 1.2 0.9
0.1 1.2 0.9
0.2 1.2 0.9
0.3 1.2 0.9
0.4 1.2 0.9
0.5 1.2 0.9
0.6 1.2 0.9
0.7 1.2 0.9
0.8 1.2 0.9
0.9 1.2 0.9
1 1.2 0.9
1.1 1.2 0.9
1.2 1.2 0.9
1.3 1.2 0.9
1.4 1.2 0.9
1.5 1.2 0.9
1.6 1.2 0.9
1.7 1.2 0.9
1.8 1.2 0.9
1.9 1.2 0.9
-0.1 1.3 0.9
0 1.3 0.9
0.1 1.3 0.9
0.2 1.3 0.9
0.3 1.3 0.9
0.4 1.3 0.9
0.5 1.3 0.9
0.6 1.3 0.9
0.7 1.3 0.9
0.8 1.3 0.9
0.9 1.3 0.9
1 1.3 0.9
1.1 1.3 0.9
1.2 1.3 0.9
1.3 1.3 0.9
1.4 1.3 0.9
1.5 1.3 0.9
1.6 1.3 0.9
1.7 1.3 0.9
1.8 1.3 0.9
1.9 1.3 0.9
-0.1 1.4 0.9
0 1.4 0.9
0.1 1.4 0.9
0.2 1.4 0.9
0.3 1.4 0.9
0.4 1.4 0.9
0.5 1.4 0.9
0.6 1.4 0.9
0.7 1.4 0.9
0.8 1.4 0.9
0.9 1.4 0.9
1 1.4 0.9
1.1 1.4 0.9
1.2 1.4 0.9
1.3 1.4 0.9
1.4 1.4 0.9
1.5 1.4 0.9
1.6 1.4 0.9
1.7 1.4 0.9
1.8 1.4 0.9
1.9 1.4 0.9
-0.1 1.5 0.9
0 1.5 0.9
0.1 1.5 0.9
0.2 1.5 0.9
0.3 1.5 0.9
0.4 1.5 0.9
0.5 1.5 0.9
0.6 1.5 0.9
0.7 1.5 0.9
0.8 1.5 0.9
0.9 1.5 0.9
1 1.5 0.9
1.1 1.5 0.9
1.2 1.5 0.9
1.3 1.5 0.9
1.4 1.5 0.9
1.5 1.5 0.9
1.6 1.5 0.9
1.7 1.5 0.9
1.8 1.5 0.9
1.9 1.5 0.9
-0.1 1.6 0.9
0 1.6 0.9
0.1 1.6 0.9
0.2 1.6 0.9
0.3 1.6 0.9
0.4 1.6 0.9
0.5 1.6 0.9
0.6 1.6 0.9
0.7 1.6 0.9
0.8 1.6 0.9
0.9 1.6 0.9
1 1.6 0.9
1.1 1.6 0.9
1.2 1.6 0.9
1.3 1.6 0.9
1.4 1.6 0.9
1.5 1.6 0.9
1.6 1.6 0.9
1.7 1.6 0.9
1.8 1.6 0.9
1.9 1.6 0.9
-0.1 1.7 0.9
0 1.7 0.9
0.1 1.7 0.9
0.2 1.7 0.9
0.3 1.7 0.9
0.4 1.7 0.9
0.5 1.7 0.9
0.6 1.7 0.9
0.7 1.7 0.9
0.8 1.7 0.9
0.9 1.7 0.9
1 1.7 0.9
1.1 1.7 0.9
1.2 1.7 0.9
1.3 1.7 0.9
1.4 1.7 0.9
1.5 1.7 0.9
1.6 1.7 0.9
1.7 1.7 0.9
1.8 1.7 0.9
1.9 1.7 0.9
-0.1 1.8 0.9
0 1.8 0.9
0.1 1.8 0.9
0.2 1.8 0.9
0.3 1.8 0.9
0.4 1.8 0.9
0.5 1.8 0.9
0.6 1.8 0.9
0.7 1.8 0.9
0.8 1.8 0.9
0.9 1.8 0.9
1 1.8 0.9
1.1 1.8 0.9
1.2 1.8 0.9
1.3 1.8 0.9
1.4 1.8 0.9
1.5 1.8 0.9
1.6 1.8 0.9
1.7 1.8 0.9
1.8 1.8 0.9
1.9 1.8 0.9
-0.1 1.9 0.9
0 1.9 0.9
0.1 1.9 0.9
0.2 1.9 0.9
0.3 1.9 0.9
0.4 1.9 0.9
0.5 1.9 0.9
0.6 1.9 0.9
0.7 1.9 0.9
0.8 1.9 0.9
0.9 1.9 0.9
1 1.9 0.9
1.1 1.9 0.9
1.2 1.9 0.9
1.3 1.9 0.9
1.4 1.9 0.9
1.5 1.9 0.9
1.6 1.9 0.9
1.7 1.9 0.9
1.8 1.9 0.9
1.9 1.9 0.9
-0.1 -0.1 1
0 -0.1 1
0.1 -0.1 1
0.2 -0.1 1
0.3 -0.1 1
0.4 -0.1 1
0.5 -0.1 1
0.6 -0.1 1
0.7 -0.1 1
0.8 -0.1 1
0.9 -0.1 1
1 -0.1 1
1.1 -0.1 1
1.2 -0.1 1
1.3 -0.1 1
1.4 -0.1 1
1.5 -0.1 1
1.6 -0.1 1
1.7 -0.1 1
1.8 -0.1 1
1.9 -0.1 1
-0.1 0 1
0 0 1
0.1 0 1
0.2 0 1
0.3 0 1
0.4 0 1
0.5 0 1
0.6 0 1
0.7 0 1
0.8 0 1
0.9 0 1
1 0 1
1.1 0 1
1.2 0 1
1.3 0 1
1.4 0 1
1.5 0 1
1.6 0 1
1.7 0 1
1.8 0 1
1.9 0 1
-0.1 0.1 1
0 0.1 1
0.1 0.1 1
0.2 0.1 1
0.3 0.1 1
0.4 0.1 1
0.5 0.1 1
0.6 0.1 1
0.7 0.1 1
0.8 0.1 1
0.9 0.1 1
1 0.1 1
1.1 0.1 1
1.2 0.1 1
1.3 0.1 1
1.4 0.1 1
1.5 0.1 1
1.6 0.1 1
1.7 0.1 1
1.8 0.1 1
1.9 0.1 1
-0.1 0.2 1
0 0.2 1
0.1 0.2 1
0.2 0.2 1
0.3 0.2 1
0.4 0.2 1
0.5 0.2 1
0.6 0.2 1
0.7 0.2 1
0.8 0.2 1
0.9 0.2 1
1 0.2 1
1.1 0.2 1
1.2 0.2 1
1.3 0.2 1
1.4 0.2 1
1.5 0.2 1
1.6 0.2 1
1.7 0.2 1
1.8 0.2 1
1.9 0.2 1
-0.1 0.3 1
0 0.3 1
0.1 0.3 1
0.2 0.3 1
0.3 0.3 1
0.4 0.3 1
0.5 0.3 1
0.6 0.3 1
0.7 0.3 1
0.8 0.3 1
0.9 0.3 1
1 0.3 1
1.1 0.3 1
1.2 0.3 1
1.3 0.3 1
1.4 0.3 1
1.5 0.3 1
1.6 0.3 1
1.7 0.3 1
1.8 0.3 1
1.9 0.3 1
-0.1 0.4 1
0 0.4 1
0.1 0.4 1
0.2 0.4 1
0.3 0.4 1
0.4 0.4 1
0.5 0.4 1
0.6 0.4 1
0.7 0.4 1
0.8 0.4 1
0.9 0.4 1
1 0.4 1
1.1 0.4 1
1.2 0.4 1
1.3 0.4 1
1.4 0.4 1
1.5 0.4 1
1.6 0.4 1
1.7 0.4 1
1.8 0.4 1
1.9 0.4 1
-0.1 0.5 1
0 0.5 1
0.1 0.5 1
0.2 0.5 1
0.3 0.5 1
0.4 0.5 1
0.5 0.5 1
0.6 0.5 1
0.7 0.5 1
0.8 0.5 1
0.9 0.5 1
1 0.5 1
1.1 0.5 1
1.2 0.5 1
1.3 0.5 1
1.4 0.5 1
1.5 0.5 1
1.6 0.5 1
1.7 0.5 1
1.8 0.5 1
1.9 0.5 1
-0.1 0.6 1
0 0.6 1
0.1 0.6 1
0.2 0.6 1
0.3 0.6 1
0.4 0.6 1
0.5 0.6 1
0.6 0.6 1
0.7 0.6 1
0.8 0.6 1
0.9 0.6 1
1 0.6 1
1.1 0.6 1
1.2 0.6 1
1.3 0.6 1
1.4 0.6 1
1.5 0.6 1
1.6 0.6 1
1.7 0.6 1
1.8 0.6 1
1.9 0.6 1
-0.1 0.7 1
0 0.7 1
0.1 0.7 1
0.2 0.7 1
0.3 0.7 1
0.4 0.7 1
0.5 0.7 1
0.6 0.7 1
0.7 0.7 1
0.8 0.7 1
0.9 0.7 1
1 0.7 1
1.1 0.7 1
1.2 0.7 1
1.3 0.7 1
1.4 0.7 1
1.5 0.7 1
1.6 0.7 1
1.7 0.7 1
1.8 0.7 1
1.9 0.7 1
-0.1 0.8 1
0 0.8 1
0.1 0.8 1
0.2 0.8 1
0.3 0.8 1
0.4 0.8 1
0.5 0.8 1
0.6 0.8 1
0.7 0.8 1
0.8 0.8 1
0.9 0.8 1
1 0.8 1
1.1 0.8 1
1.2 0.8 1
1.3 0.8 1
1.4 0.8 1
1.5 0.8 1
1.6 0.8 1
1.7 0.8 1
1.8 0.8 1
1.9 0.8 1
-0.1 0.9 1
0 0.9 1
0.1 0.9 1
0.2 0.9 1
0.3 0.9 1
0.4 0.9 1
0.5 0.9 1
0.6 0.9 1
0.7 0.9 1
0.8 0.9 1
0.9 0.9 1
1 0.9 1
1.1 0.9 1
1.2 0.9 1
1.3 0.9 1
1.4 0.9 1
1.5 0.9 1
1.6 0.9 1
1.7 0.9 1
1.8 0.9 1
1.9 0.9 1
-0.1 1 1
0 1 1
0.1 1 1
0.2 1 1
0.3 1 1
0.4 1 1
0.5 1 1
0.6 1 1
0.7 1 1
0.8 1 1
0.9 1 1
1 1 1
1.1 1 1
1.2 1 1
1.3 1 1
1.4 1 1
1.5 1 1
1.6 1 1
1.7 1 1
1.8 1 1
1.9 1 1
-0.1 1.1 1
0 1.1 1
0.1 1.1 1
0.2 1.1 1
0.3 1.1 1
0.4 1.1 1
0.5 1.1 1
0.6 1.1 1
0.7 1.1 1
0.8 1.1 1
0.9 1.1 1
1 1.1 1
1.1 1.1 1
1.2 1.1 1
1.3 1.1 1
1.4 1.1 1
1.5 1.1 1
1.6 1.1 1
1.7 1.1 1
1.8 1.1 1
1.9 1.1 1
-0.1 1.2 1
0 1.2 1
0.1 1.2 1
0.2 1.2 1
0.3 1.2 1
0.4 1.2 1
0.5 1.2 1
0.6 1.2 1
0.7 1.2 1
0.8 1.2 1
0.9 1.2 1
1 1.2 1
1.1 1.2 1
1.2 1.2 1
1.3 1.2 1
1.4 1.2 1
1.5 1.2 1
1.6 1.2 1
1.7 1.2 1
1.8 1.2 1
1.9 1.2 1
-0.1 1.3 1
0 1.3 1
0.1 1.3 1
0.2 1.3 1
0.3 1.3 1
0.4 1.3 1
0.5 1.3 1
0.6 1.3 1
0.7 1.3 1
0.8 1.3 1
0.9 1.3 1
1 1.3 1
1.1 1.3 1
1.2 1.3 1
1.3 1.3 1
1.4 1.3 1
1.5 1.3 1
1.6 1.3 1
1.7 1.3 1
1.8 1.3 1
1.9 1.3 1
-0.1 1.4 1
0 1.4 1
0.1 1.4 1
0.2 1.4 1
0.3 1.4 1
0.4 1.4 1
0.5 1.4 1
0.6 1.4 1
0.7 1.4 1
0.8 1.4 1
0.9 1.4 1
1 1.4 1
1.1 1.4 1
1.2 1.4 1
1.3 1.4 1
1.4 1.4 1
1.5 1.4 1
1.6 1.4 1
1.7 1.4 1
1.8 1.4 1
1.9 1.4 1
-0.1 1.5 1
0 1.5 1
0.1 1.5 1
0.2 1.5 1
0.3 1.5 1
0.4 1.5 1
0.5 1.5 1
0.6 1.5 1
0.7 1.5 1
0.8 1.5 1
0.9 1.5 1
1 1.5 1
1.1 1.5 1
1.2 1.5 1
1.3 1.5 1
1.4 1.5 1
1.5 1.5 1
1.6 1.5 1
1.7 1.5 1
1.8 1.5 1
1.9 1.5 1
-0.1 1.6 1
0 1.6 1
0.1 1.6 1
0.2 1.6 1
0.3 1.6 1
0.4 1.6 1
0.5 1.6 1
0.6 1.6 1
0.7 1.6 1
0.8 1.6 1
0.9 1.6 1
1 1.6 1
1.1 1.6 1
1.2 1.6 1
1.3 1.6 1
1.4 1.6 1
1.5 1.6 1
1.6 1.6 1
1.7 1.6 1
1.8 1.6 1
1.9 1.6 1
-0.1 1.7 1
0 1.7 1
0.1 1.7 1
0.2 1.7 1
0.3 1.7 1
0.4 1.7 1
0.5 1.7 1
0.6 1.7 1
0.7 1.7 1
0.8 1.7 1
0.9 1.7 1
1 1.7 1
1.1 1.7 1
1.2 1.7 1
1.3 1.7 1
1.4 1.7 1
1.5 1.7 1
1.6 1.7 1
1.7 1.7 1
1.8 1.7 1
1.9 1.7 1
-0.1 1.8 1
0 1.8 1
0.1 1.8 1
0.2 1.8 1
0.3 1.8 1
0.4 1.8 1
0.5 1.8 1
0.6 1.8 1
0.7 1.8 1
0.8 1.8 1
0.9 1.8 1
1 1.8 1
1.1 1.8 1
1.2 1.8 1
1.3 1.8 1
1.4 1.8 1
1.5 1.8 1
1.6 1.8 1
1.7 1.8 1
1.8 1.8 1
1.9 1.8 1
-0.1 1.9 1
0 1.9 1
0.1 1.9 1
0.2 1.9 1
0.3 1.9 1
0.4 1.9 1
0.5 1.9 1
0.6 1.9 1
0.7 1.9 1
0.8 1.9 1
0.9 1.9 1
1 1.9 1
1.1 1.9 1
1.2 1.9 1
1.3 1.9 1
1.4 1.9 1
1.5 1.9 1
1.6 1.9 1
1.7 1.9 1
1.8 1.9 1
1.9 1.9 1
-0.1 -0.1 1.1
0 -0.1 1.1
0.1 -0.1 1.1
0.2 -0.1 1.1
0.3 -0.1 1.1
0.4 -0.1 1.1
0.5 -0.1 1.1
0.6 -0.1 1.1
0.7 -0.1 1.1
0.8 -0.1 1.1
0.9 -0.1 1.1
1 -0.1 1.1
1.1 -0.1 1.1
1.2 -0.1 1.1
1.3 -0.1 1.1
1.4 -0.1 1.1
1.5 -0.1 1.1
1.6 -0.1 1.1
1.7 -0.1 1.1
1.8 -0.1 1.1
1.9 -0.1 1.1
-0.1 0 1.1
0 0 1.1
0.1 0 1.1
0.2 0 1.1
0.3 0 1.1
0.4 0 1.1
0.5 0 1.1
0.6 0 1.1
0.7 0 1.1
0.8 0 1.1
0.9 0 1.1
1 0 1.1
1.1 0 1.1
1.2 0 1.1
1.3 0 1.1
1.4 0 1.1
1.5 0 1.1
[...]
CELL_DATA 4000
VECTORS velocity double 
2.71218e-05 -0.000136136 0.00294535
2.84156e-05 -0.000165708 0.00434005
1.043e-05 -0.000177951 0.00454364
-1.14362e-05 -0.000186993 0.00458404
-3.31645e-05 -0.000191686 0.00460041
-5.45263e-05 -0.000193863 0.00459931
-7.54064e-05 -0.000195131 0.00457767
-9.50033e-05 -0.000196245 0.00453622
-0.000112041 -0.000197357 0.00447701
-0.000125012 -0.000198345 0.0044023
-0.00013248 -0.000198954 0.00431478
-0.000133288 -0.000198835 0.00421799
-0.000126889 -0.000197558 0.00411695
-0.000113834 -0.000194599 0.00401808
-9.64722e-05 -0.000189378 0.00392924
-7.94241e-05 -0.000181335 0.00386078
-7.03668e-05 -0.000170148 0.00382741
-7.99826e-05 -0.000156588 0.00383421
-0.000110242 -0.000143278 0.00375342
-5.5121e-05 -0.000111199 0.00260009
3.20871e-05 -0.000456007 0.00428019
1.67251e-05 -0.000594499 0.00617877
-1.8086e-05 -0.000640421 0.00634616
-5.28415e-05 -0.000667126 0.00633398
-8.51595e-05 -0.000680267 0.00633624
-0.000116459 -0.000686154 0.00633102
-0.00014723 -0.000689166 0.00629786
-0.000176537 -0.000691291 0.00623295
-0.000202599 -0.000693046 0.00613848
-0.000223175 -0.000694229 0.00601789
-0.000235952 -0.000694221 0.00587537
-0.000238841 -0.000692086 0.00571672
-0.000230399 -0.000686695 0.00554988
-0.000210443 -0.000676724 0.00538542
-0.000181045 -0.000660863 0.00523714
-0.000147404 -0.000637855 0.00512673
-0.000119777 -0.000607102 0.00509406
-0.000115131 -0.000569882 0.00518384
-0.000142641 -0.000528671 0.00523208
-7.13204e-05 -0.000411089 0.00376548
5.80182e-06 -0.000937665 0.00422565
-3.72361e-05 -0.00125212 0.00572202
-8.87487e-05 -0.00134871 0.00564782
-0.000131316 -0.0013996 0.00554651
-0.000166916 -0.00142409 0.00552878
-0.000199733 -0.00143494 0.00552252
-0.000231369 -0.00144006 0.00548828
-0.000261136 -0.00144305 0.00541728
-0.000287096 -0.00144499 0.00531095
-0.000306563 -0.00144562 0.00517286
-0.000316572 -0.00144386 0.00500765
-0.000314335 -0.00143812 0.00482189
-0.000297648 -0.00142641 0.00462478
-0.000265657 -0.0014064 0.00442905
-0.000219817 -0.00137587 0.00425207
-0.000165288 -0.00133302 0.00412343
-0.000113564 -0.00127705 0.00410544
-8.6668e-05 -0.00120982 0.00429855
-0.000106048 -0.00112987 0.00463253
-5.3024e-05 -0.000872624 0.00365282
-3.79096e-05 -0.00156018 0.00370514
-0.000119083 -0.00211845 0.0044221
-0.000190662 -0.00228332 0.00402161
-0.000240699 -0.00236518 0.00382248
-0.000277492 -0.00240415 0.00378654
-0.000308866 -0.00242139 0.00378153
-0.000337933 -0.00242923 0.00374918
-0.000364459 -0.00243327 0.00367612
-0.000386399 -0.00243531 0.0035631
-0.000400567 -0.00243506 0.00341365
-0.000403316 -0.00243088 0.0032325
-0.000391037 -0.00242039 0.00302656
-0.000360595 -0.00240062 0.00280616
-0.000310464 -0.00236813 0.00258595
-0.000241712 -0.00231955 0.00238668
-0.000159543 -0.00225228 0.00224483
-7.71618e-05 -0.00216547 0.00224352
-2.25472e-05 -0.00206119 0.002546
-3.40251e-05 -0.00192931 0.00323747
-1.70126e-05 -0.00147274 0.00309394
-9.62442e-05 -0.00230951 0.00272843
-0.000226151 -0.0031841 0.00232407
-0.000322123 -0.00343811 0.00150517
-0.000380243 -0.00355898 0.00118859
-0.000417122 -0.00361606 0.00113098
-0.000445186 -0.0036414 0.00112701
-0.000469503 -0.00365274 0.0010974
-0.000490472 -0.0036582 0.00102381
-0.000505938 -0.00366048 0.000906006
-0.000512087 -0.00365926 0.000747337
-0.000504478 -0.00365238 0.00055259
-0.000478531 -0.00363646 0.000329017
-0.00043 -0.00360731 8.80913e-05
-0.000356423 -0.00356015 -0.000153481
-0.000258443 -0.00349024 -0.000371622
-0.000141571 -0.00339385 -0.000522457
-2.10599e-05 -0.00326972 -0.000500937
6.75299e-05 -0.00311973 -6.98525e-05
6.45529e-05 -0.00291851 0.0010649
3.22764e-05 -0.0021969 0.0020884
-0.000171509 -0.00316008 0.00113957
-0.000362467 -0.00442361 -0.000824255
-0.000487878 -0.00478967 -0.00219239
-0.00055483 -0.00495826 -0.00266279
-0.000590565 -0.00503734 -0.00275189
-0.000613304 -0.00507258 -0.00275722
-0.000630647 -0.00508831 -0.00278417
-0.000643784 -0.00509573 -0.00285719
-0.000650421 -0.0050986 -0.00297796
-0.000646074 -0.00509657 -0.00314358
-0.000625274 -0.00508707 -0.00334945
-0.000582238 -0.00506563 -0.00358774
-0.000511403 -0.00502645 -0.0038457
-0.000409042 -0.00496314 -0.00410453
-0.000275039 -0.0048691 -0.00433647
-0.000115205 -0.00473902 -0.00448955
5.2473e-05 -0.0045708 -0.00443238
0.00018364 -0.00436493 -0.0038369
0.000191777 -0.00407406 -0.00213355
9.58883e-05 -0.00302076 0.000482461
-0.000265912 -0.00406015 -0.00124356
-0.000531528 -0.00577637 -0.00531994
-0.000691886 -0.00627774 -0.00740836
-0.000768378 -0.00650254 -0.00808334
-0.000801504 -0.00660707 -0.00821871
-0.000816683 -0.00665378 -0.00822971
-0.000824735 -0.00667483 -0.00825473
-0.000827737 -0.00668497 -0.00832637
-0.000823211 -0.00668906 -0.00844807
-0.000806081 -0.00668685 -0.00861768
-0.000769599 -0.00667535 -0.00883084
-0.000706361 -0.00664908 -0.00907919
-0.000609241 -0.00660042 -0.00934873
-0.00047274 -0.00652071 -0.00961837
-0.000295514 -0.00640109 -0.00985626
-8.34819e-05 -0.00623383 -0.010001
0.000142356 -0.00601532 -0.00988976
0.000326764 -0.0057429 -0.00908044
0.000349993 -0.0053401 -0.00664669
0.000174997 -0.00389506 -0.00190183
-0.000380257 -0.00492118 -0.00459636
-0.000734314 -0.00713252 -0.011448
-0.000934824 -0.00778964 -0.0144627
-0.00102109 -0.00807736 -0.0154048
-0.00104984 -0.00820957 -0.0156054
-0.00105521 -0.00826862 -0.015628
-0.00105176 -0.00829559 -0.0156527
-0.00104248 -0.00830903 -0.0157224
-0.00102472 -0.00831522 -0.0158428
-0.000992889 -0.00831411 -0.0160126
-0.000938895 -0.00830219 -0.0162278
-0.000853283 -0.00827297 -0.0164796
-0.000726745 -0.00821706 -0.016753
-0.000551594 -0.00812309 -0.0170242
-0.000324394 -0.00797894 -0.0172571
-5.07921e-05 -0.00777377 -0.0173793
0.000245245 -0.00750085 -0.01719
0.000495284 -0.0071524 -0.0161065
0.000539299 -0.00661551 -0.0127492
0.000269649 -0.00473556 -0.0052359
-0.00051281 -0.00561043 -0.00905981
-0.000967133 -0.00832114 -0.019435
-0.00121152 -0.00914698 -0.0236107
-0.00130698 -0.00950041 -0.0248921
-0.00132931 -0.00966015 -0.0251805
-0.00132265 -0.00973119 -0.0252221
-0.0013057 -0.009764 -0.0252484
-0.00128259 -0.00978102 -0.0253157
-0.00125048 -0.00979021 -0.0254327
-0.00120311 -0.00979201 -0.0255986
-0.00113107 -0.00978235 -0.0258097
-0.00102268 -0.00975382 -0.0260572
-0.000865793 -0.00969533 -0.026325
-0.000649583 -0.00959263 -0.0265866
-0.000367785 -0.00942948 -0.0268011
-2.44765e-05 -0.00919039 -0.0268837
0.000353487 -0.00886372 -0.0265879
0.000682527 -0.0084332 -0.0251608
0.000754786 -0.00774347 -0.0206604
0.000377393 -0.00541564 -0.00965753
-0.000657712 -0.00594803 -0.0146975
-0.00121903 -0.00910393 -0.0293833
-0.00150804 -0.010098 -0.0349704
-0.00161076 -0.010513 -0.0366691
-0.00162444 -0.0106962 -0.0370691
-0.00160391 -0.0107766 -0.0371376
-0.00157211 -0.0108142 -0.0371681
-0.00153466 -0.0108349 -0.0372328
-0.00148859 -0.010848 -0.0373443
-0.0014267 -0.0108547 -0.0375025
-0.00133836 -0.0108509 -0.0377036
-0.00120969 -0.0108285 -0.0379389
-0.00102525 -0.0107752 -0.0381913
-0.000769961 -0.0106738 -0.0384319
-0.000433203 -0.0105033 -0.0386145
-1.59319e-05 -0.010242 -0.0386402
0.0004533 -0.00987016 -0.0382088
0.000873974 -0.00935894 -0.0363625
0.000983859 -0.00850528 -0.0304835
0.000491929 -0.00576279 -0.0152311
-0.000803397 -0.00571411 -0.0214427
-0.00146894 -0.00918043 -0.0411848
-0.00179801 -0.0103208 -0.0484261
-0.00190397 -0.0107826 -0.0506172
-0.00190655 -0.0109792 -0.0511508
-0.00187132 -0.0110635 -0.0512532
-0.00182486 -0.0111033 -0.0512905
-0.00177417 -0.0111269 -0.0513525
-0.00171639 -0.0111446 -0.0514568
-0.00164354 -0.0111583 -0.0516041
-0.00154393 -0.0111645 -0.0517906
-0.00140175 -0.0111554 -0.0520076
-0.00119795 -0.0111179 -0.0522371
-0.000912329 -0.0110328 -0.0524485
-0.000527977 -0.0108743 -0.0525902
-3.99321e-05 -0.0106128 -0.0525471
0.0005236 -0.0102171 -0.0519552
0.00104525 -0.00963909 -0.0496168
0.00120382 -0.00862464 -0.0421264
0.000601911 -0.00556508 -0.0218972
-0.000930958 -0.00467132 -0.0290444
-0.00168232 -0.00821141 -0.0544325
-0.00203843 -0.00944506 -0.063528
-0.00214055 -0.00992394 -0.0662708
-0.00212964 -0.0101167 -0.0669521
-0.00208039 -0.0101956 -0.0670912
-0.00202178 -0.0102332 -0.0671363
-0.00196135 -0.0102581 -0.067196
-0.0018966 -0.0102805 -0.0672919
-0.00181939 -0.0103027 -0.0674265
-0.00171744 -0.0103228 -0.0675963
-0.00157365 -0.0103343 -0.0677927
-0.00136575 -0.0103251 -0.0679977
-0.00106788 -0.0102754 -0.0681797
-0.000654892 -0.0101563 -0.0682823
-0.000112285 -0.00992938 -0.0681717
0.000536691 -0.00954826 -0.0674095
0.00116086 -0.0089373 -0.0645219
0.00137976 -0.00778927 -0.0552192
0.000689878 -0.00459249 -0.0294205
-0.00101221 -0.00260937 -0.0370344
-0.00180746 -0.00586875 -0.0683591
-0.00216565 -0.00710074 -0.0794167
-0.0022532 -0.00754775 -0.0827371
-0.00222676 -0.00771082 -0.083566
-0.00216615 -0.00777187 -0.0837376
-0.00210066 -0.00780118 -0.083788
-0.00203713 -0.00782462 -0.0838449
-0.00197314 -0.0078507 -0.0839327
-0.00190131 -0.00788205 -0.0840548
-0.00180985 -0.00791845 -0.0842092
-0.0016816 -0.00795645 -0.0843882
-0.0014925 -0.00798715 -0.0845756
-0.00121179 -0.00799346 -0.0847406
-0.000804576 -0.00794608 -0.0848239
-0.000242985 -0.00780045 -0.084671
0.000462258 -0.00749273 -0.0837577
0.00117474 -0.006911 -0.0802999
0.00146364 -0.0056945 -0.0690579
0.000731819 -0.00263795 -0.0373586
-0.00100701 0.000584074 -0.0447284
-0.00177158 -0.00191928 -0.0818098
-0.00209141 -0.00300131 -0.0947734
-0.00214969 -0.00334518 -0.0986373
-0.00210703 -0.00344463 -0.0995908
-0.00204076 -0.00347294 -0.0997817
-0.00197688 -0.00348753 -0.0998308
-0.00192001 -0.00350604 -0.0998826
-0.00186759 -0.0035335 -0.0999627
-0.00181354 -0.00357237 -0.100075
-0.0017483 -0.00362461 -0.100219
-0.00165671 -0.0036909 -0.10039
-0.00151575 -0.00376821 -0.100576
-0.00129214 -0.00384626 -0.100752
-0.000942694 -0.00390143 -0.100858
-0.000422966 -0.00388926 -0.100721
0.000277946 -0.00373227 -0.09972
0.00103559 -0.00327771 -0.0957385
0.00139494 -0.00211417 -0.0825719
0.000697472 0.000418098 -0.0450608
-0.000860348 0.0048284 -0.0511984
-0.00147685 0.0036639 -0.0930334
-0.00170056 0.00294053 -0.10751
-0.00171237 0.00279067 -0.11176
-0.00165596 0.00279248 -0.112775
-0.00159392 0.00281108 -0.11296
-0.00154371 0.00281686 -0.112997
-0.00150612 0.00280673 -0.11304
-0.00147833 0.00278107 -0.113113
-0.00145628 0.00273849 -0.113219
-0.00143405 0.00267484 -0.113361
-0.00140128 0.00258479 -0.113539
-0.00133993 0.00246346 -0.11375
-0.00121967 0.0023102 -0.113977
-0.000994294 0.00213515 -0.114171
-0.000605162 0.00197073 -0.114142
-1.22589e-05 0.00189432 -0.113181
0.000698655 0.0020903 -0.108854
0.00110389 0.00300467 -0.0940908
0.000551946 0.00451851 -0.0516275
-0.000500587 0.00971567 -0.0549259
-0.000804892 0.0105294 -0.0986583
-0.000861966 0.0104265 -0.113396
-0.000812795 0.0105682 -0.117566
-0.000751137 0.0107028 -0.118489
-0.000708446 0.0107773 -0.11862
-0.000687698 0.0108064 -0.118631
-0.000684899 0.0108072 -0.11866
-0.000696743 0.0107871 -0.118725
-0.000721778 0.0107466 -0.118829
-0.000758574 0.0106803 -0.118976
-0.000803936 0.0105786 -0.119174
-0.000849149 0.0104287 -0.119431
-0.000874509 0.0102169 -0.11975
-0.000842137 0.00993299 -0.120098
-0.000691411 0.0095822 -0.120297
-0.000356545 0.0092151 -0.119603
0.000144536 0.00901072 -0.11543
0.000518068 0.0093954 -0.10026
0.000259034 0.00930049 -0.0555458
0.00016563 0.0143221 -0.0519301
0.000367073 0.0176669 -0.0897483
0.000533455 0.0184395 -0.101432
0.000636974 0.0189374 -0.104384
0.000679444 0.0192119 -0.104884
0.000677079 0.0193392 -0.104876
0.000645047 0.0193901 -0.104839
0.000592098 0.0194026 -0.104849
0.000521506 0.019392 -0.104906
0.000432463 0.0193605 -0.105008
0.000321715 0.0193028 -0.105162
0.000184823 0.019207 -0.105382
1.84227e-05 0.0190554 -0.10569
-0.000175693 0.0188234 -0.10611
-0.00038359 0.0184798 -0.106649
-0.000568213 0.0179925 -0.107191
-0.000665861 0.0173543 -0.107138
-0.000619412 0.0166681 -0.104289
-0.000455735 0.0162112 -0.0920128
-0.000227867 0.0138964 -0.0527835
0.00119735 0.0169792 -0.0288948
0.00204604 0.0229602 -0.0413719
0.00241544 0.0246754 -0.0433583
0.00250958 0.0254825 -0.0431856
0.0024729 0.0258541 -0.042787
0.00237711 0.0260125 -0.042538
0.00225284 0.0260769 -0.0424339
0.00211135 0.0260998 -0.0424208
0.00195477 0.0261006 -0.0424656
0.00178055 0.0260832 -0.0425595
0.00158234 0.0260433 -0.0427085
0.00135018 0.0259704 -0.0429307
0.00107022 0.0258465 -0.0432567
0.000723559 0.0256437 -0.0437307
0.000288395 0.0253198 -0.044408
-0.000253712 0.0248136 -0.0453191
-0.000900943 0.0240508 -0.0463277
-0.00157635 0.0229893 -0.0467185
-0.00191717 0.0215484 -0.0440767
-0.000958583 0.0166506 -0.0299174
0.00242546 0.0152128 0.0610694
0.00377366 0.0222199 0.111648
0.00411278 0.0242135 0.126397
0.00401241 0.0250124 0.130617
0.00377205 0.0253499 0.131932
0.00350152 0.0254898 0.132375
0.00323227 0.0255485 0.132523
0.00296957 0.0255734 0.132554
0.00271088 0.0255812 0.132526
0.00245088 0.025576 0.132454
0.0021815 0.0255556 0.132334
0.00189067 0.0255129 0.132153
0.001559 0.0254355 0.131882
0.00115417 0.0253023 0.131476
0.000622967 0.0250789 0.130847
-0.000120065 0.0247079 0.12982
-0.00119225 0.0241 0.127929
-0.00262778 0.0231222 0.12345
-0.00373629 0.0213202 0.109191
-0.00186815 0.0150065 0.0600252
0.00256735 0.0076064 0.389499
0.00353102 0.0111099 0.529368
0.00340131 0.0121068 0.553623
0.00295141 0.0125062 0.558225
0.00249998 0.0126749 0.559286
0.00212245 0.0127449 0.559587
0.00181641 0.0127742 0.55968
0.00156386 0.0127867 0.559702
0.00134844 0.0127906 0.559688
0.00115737 0.012788 0.559647
0.00097964 0.0127778 0.559579
0.000803689 0.0127565 0.559479
0.000613565 0.0127177 0.559334
0.000382181 0.0126512 0.55912
5.95165e-05 0.0125394 0.558783
-0.000449386 0.0123539 0.558183
-0.00130936 0.01205 0.556815
-0.00267105 0.0115611 0.552063
-0.00396231 0.0106601 0.528022
-0.00198116 0.00750325 0.388628
2.34857e-05 -8.36244e-05 0.00314577
4.1137e-05 -9.52988e-05 0.00466458
3.84248e-05 -0.000100328 0.00488841
2.50586e-05 -0.000104758 0.00493471
5.77463e-06 -0.000107139 0.00495537
-1.74826e-05 -0.00010839 0.00495752
-4.33354e-05 -0.000109453 0.00493802
-7.02832e-05 -0.000110766 0.00489773
-9.66503e-05 -0.000112397 0.00483868
-0.00012057 -0.000114248 0.00476293
-0.000140144 -0.00011611 0.00467278
-0.000153531 -0.000117662 0.00457158
-0.000159176 -0.00011846 0.0044642
-0.000156507 -0.000117972 0.00435731
-0.000146564 -0.000115523 0.00425966
-0.000132608 -0.000110551 0.00418315
-0.000120906 -0.000102875 0.00414464
-0.000118587 -9.3092e-05 0.00415065
-0.000124071 -8.28098e-05 0.00406157
-6.20357e-05 -6.00306e-05 0.0028056
3.37952e-05 -0.000294335 0.00467135
4.71495e-05 -0.000372419 0.00678609
3.75737e-05 -0.000396363 0.00698482
1.76747e-05 -0.000410535 0.00698031
-8.52453e-06 -0.000417329 0.00698877
-3.99587e-05 -0.000420446 0.00698833
-7.5548e-05 -0.000422665 0.00695789
-0.000113585 -0.000425227 0.00689367
-0.000151902 -0.000428447 0.00679791
-0.000187919 -0.000432104 0.0066738
-0.000218782 -0.000435674 0.00652513
-0.000241533 -0.000438345 0.00635731
-0.000253449 -0.000439021 0.00617824
-0.000252736 -0.000436223 0.00599892
-0.000239697 -0.000428396 0.00583449
-0.000217739 -0.000414108 0.00570929
-0.000194794 -0.000392885 0.00566748
-0.000182065 -0.000366247 0.00575753
-0.00017867 -0.000336655 0.00579553
-8.93351e-05 -0.00025923 0.00414984
2.09074e-05 -0.000663894 0.00476178
1.8965e-05 -0.000865876 0.00651038
-8.00569e-07 -0.000922614 0.00646585
-2.60554e-05 -0.00095177 0.00637207
-5.51864e-05 -0.000965115 0.0063621
-8.88821e-05 -0.000970832 0.00636203
-0.00012681 -0.000974266 0.00633115
-0.000167475 -0.000977837 0.00626075
-0.000208532 -0.00098219 0.00615238
-0.000247039 -0.000987045 0.00600934
-0.000279585 -0.000991523 0.00583575
-0.000302518 -0.000994267 0.00563765
-0.000312134 -0.000993264 0.00542413
-0.000305762 -0.000986001 0.00520843
-0.000282901 -0.000969766 0.0050095
-0.000246881 -0.000942336 0.00486028
-0.000206897 -0.000902862 0.0048293
-0.000178098 -0.000853888 0.00502423
-0.000166718 -0.000796359 0.00535614
-8.33589e-05 -0.000618236 0.0041732
-4.83978e-06 -0.00120697 0.0044127
-3.08697e-05 -0.00160144 0.00541081
-6.44198e-05 -0.00170723 0.00503682
-9.5637e-05 -0.00175759 0.0048462
-0.000126817 -0.00178022 0.00482055
-0.000161132 -0.00178969 0.00482365
-0.000199354 -0.00179467 0.00479562
-0.000240242 -0.00179911 0.00472335
-0.000281367 -0.00180419 0.00460777
-0.000319402 -0.00180964 0.00445209
-0.000350327 -0.00181416 0.00426036
-0.000369561 -0.00181572 0.00403883
-0.000372376 -0.00181132 0.0037976
-0.000355065 -0.00179715 0.0035518
-0.000316477 -0.00176927 0.00332396
-0.000259885 -0.00172433 0.0031547
-0.000196405 -0.00166136 0.0031351
-0.000146496 -0.00158352 0.00343976
-0.000127699 -0.00148612 0.00413937
-6.38495e-05 -0.00114712 0.00377648
-4.24328e-05 -0.00193814 0.00363243
-0.000101965 -0.00260764 0.00353451
-0.000153632 -0.00278293 0.00273751
-0.000191895 -0.00286234 0.00243098
-0.000224596 -0.0028978 0.00238683
-0.000258204 -0.0029125 0.00239335
-0.000295035 -0.00291954 0.00236929
-0.000334344 -0.00292484 0.00229679
-0.00037362 -0.00293034 0.00217594
-0.000409075 -0.00293576 0.00200968
-0.000435963 -0.00293946 0.00180193
-0.00044863 -0.00293855 0.00155913
-0.00044101 -0.00292883 0.00129232
-0.000408284 -0.00290515 0.0010186
-0.000348417 -0.00286199 0.000764105
-0.000264931 -0.00279464 0.000577696
-0.000171161 -0.00270161 0.000574576
-9.45087e-05 -0.00258648 0.00100807
-6.7793e-05 -0.00243277 0.00216426
-3.38965e-05 -0.00185893 0.00295722
-9.42471e-05 -0.00286033 0.00224898
-0.000198796 -0.00389927 0.000604412
-0.000274104 -0.00416866 -0.000751464
-0.000320922 -0.00428628 -0.00121104
-0.000354515 -0.00433862 -0.00128326
-0.000385906 -0.00436039 -0.00127549
-0.000419383 -0.00437018 -0.00129543
-0.000454974 -0.0043765 -0.00136692
-0.000490139 -0.00438219 -0.00149116
-0.000520623 -0.0043871 -0.00166573
-0.00054074 -0.00438915 -0.00188706
-0.000543571 -0.00438456 -0.00214844
-0.000521607 -0.00436777 -0.00243777
-0.000468488 -0.00433201 -0.00273598
-0.000381043 -0.00426974 -0.00301294
-0.000262938 -0.0041745 -0.00321074
-0.000130531 -0.00404404 -0.00318527
-1.97176e-05 -0.00388126 -0.00258619
1.62827e-05 -0.00365069 -0.000842519
8.14136e-06 -0.00275675 0.00154585
-0.000162846 -0.00395239 5.55038e-05
-0.000325951 -0.00546051 -0.00371312
-0.000431423 -0.005852 -0.00580594
-0.000488564 -0.00601795 -0.00647094
-0.000522413 -0.00609146 -0.00658619
-0.000549754 -0.00612221 -0.0065813
-0.000577687 -0.00613563 -0.00659775
-0.00060715 -0.00614331 -0.00666723
-0.000635663 -0.00614922 -0.00679265
-0.000658461 -0.00615335 -0.00697235
-0.000668812 -0.00615328 -0.00720316
-0.000658298 -0.00614423 -0.00747821
-0.000617707 -0.00611921 -0.00778463
-0.000538649 -0.00606936 -0.00810111
-0.000416384 -0.00598473 -0.00839318
-0.00025467 -0.0058564 -0.00859237
-7.32258e-05 -0.00568072 -0.00851991
8.09683e-05 -0.00545853 -0.00770407
0.000128204 -0.00512651 -0.00520344
6.41019e-05 -0.00382092 -0.000659568
-0.000250055 -0.005156 -0.00315814
-0.000486769 -0.00722859 -0.00974999
-0.000629445 -0.00777143 -0.0127967
-0.000698671 -0.00799558 -0.0137327
-0.000731938 -0.00809415 -0.0139108
-0.000753323 -0.00813554 -0.013915
-0.00077333 -0.00815343 -0.0139295
-0.000794102 -0.00816292 -0.0139963
-0.000813246 -0.00816931 -0.0141204
-0.000825547 -0.00817287 -0.0143011
-0.000823125 -0.00817076 -0.0145356
-0.000795903 -0.00815737 -0.0148172
-0.000732478 -0.00812414 -0.0151324
-0.000621961 -0.00805972 -0.0154575
-0.000457342 -0.00795098 -0.0157532
-0.000242102 -0.00778593 -0.0159393
1.81473e-07 -0.00755819 -0.015795
0.000208848 -0.00726458 -0.0146991
0.000270447 -0.00680342 -0.0112377
0.000135224 -0.00499648 -0.00386365
-0.000356016 -0.00636235 -0.00757832
-0.000681179 -0.00907419 -0.0177948
-0.000867661 -0.00979523 -0.0220447
-0.000950373 -0.0100853 -0.0233289
-0.00098198 -0.0102113 -0.023594
-0.000995431 -0.0102642 -0.0236153
-0.00100519 -0.010287 -0.0236302
-0.00101485 -0.0102988 -0.0236938
-0.00102222 -0.0103061 -0.0238141
-0.0010216 -0.0103098 -0.023991
-0.00100404 -0.0103068 -0.0242223
-0.000957644 -0.0102905 -0.0245016