# vtk DataFile Version 2.0 
Visualization 
ASCII 
DATASET STRUCTURED_GRID 
DIMENSIONS 21 21 11
POINTS 4851 float
-0.1 -0.1 0.9
0 -0.1 0.9
0.1 -0.1 0.9
0.2 -0.1 0.9
0.3 -0.1 0.9
0.4 -0.1 0.9
0.5 -0.1 0.9
0.6 -0.1 0.9
0.7 -0.1 0.9
0.8 -0.1 0.9
0.9 -0.1 0.9
1 -0.1 0.9
1.1 -0.1 0.9
1.2 -0.1 0.9
1.3 -0.1 0.9
1.4 -0.1 0.9
1.5 -0.1 0.9
1.6 -0.1 0.9
1.7 -0.1 0.9
1.8 -0.1 0.9
1.9 -0.1 0.9
-0.1 0 0.9
0 0 0.9
0.1 0 0.9
0.2 0 0.9
0.3 0 0.9
0.4 0 0.9
0.5 0 0.9
0.6 0 0.9
0.7 0 0.9
0.8 0 0.9
0.9 0 0.9
1 0 0.9
1.1 0 0.9
1.2 0 0.9
1.3 0 0.9
1.4 0 0.9
1.5 0 0.9
1.6 0 0.9
1.7 0 0.9
1.8 0 0.9
1.9 0 0.9
-0.1 0.1 0.9
0 0.1 0.9
0.1 0.1 0.9
0.2 0.1 0.9
0.3 0.1 0.9
0.4 0.1 0.9
0.5 0.1 0.9
0.6 0.1 0.9
0.7 0.1 0.9
0.8 0.1 0.9
0.9 0.1 0.9
1 0.1 0.9
1.1 0.1 0.9
1.2 0.1 0.9
1.3 0.1 0.9
1.4 0.1 0.9
1.5 0.1 0.9
1.6 0.1 0.9
1.7 0.1 0.9
1.8 0.1 0.9
1.9 0.1 0.9
-0.1 0.2 0.9
0 0.2 0.9
0.1 0.2 0.9
0.2 0.2 0.9
0.3 0.2 0.9
0.4 0.2 0.9
0.5 0.2 0.9
0.6 0.2 0.9
0.7 0.2 0.9
0.8 0.2 0.9
0.9 0.2 0.9
1 0.2 0.9
1.1 0.2 0.9
1.2 0.2 0.9
1.3 0.2 0.9
1.4 0.2 0.9
1.5 0.2 0.9
1.6 0.2 0.9
1.7 0.2 0.9
1.8 0.2 0.9
1.9 0.2 0.9
-0.1 0.3 0.9
0 0.3 0.9
0.1 0.3 0.9
0.2 0.3 0.9
0.3 0.3 0.9
0.4 0.3 0.9
0.5 0.3 0.9
0.6 0.3 0.9
0.7 0.3 0.9
0.8 0.3 0.9
0.9 0.3 0.9
1 0.3 0.9
1.1 0.3 0.9
1.2 0.3 0.9
1.3 0.3 0.9
1.4 0.3 0.9
1.5 0.3 0.9
1.6 0.3 0.9
1.7 0.3 0.9
1.8 0.3 0.9
1.9 0.3 0.9
-0.1 0.4 0.9
0 0.4 0.9
0.1 0.4 0.9
0.2 0.4 0.9
0.3 0.4 0.9
0.4 0.4 0.9
0.5 0.4 0.9
0.6 0.4 0.9
0.7 0.4 0.9
0.8 0.4 0.9
0.9 0.4 0.9
1 0.4 0.9
1.1 0.4 0.9
1.2 0.4 0.9
1.3 0.4 0.9
1.4 0.4 0.9
1.5 0.4 0.9
1.6 0.4 0.9
1.7 0.4 0.9
1.8 0.4 0.9
1.9 0.4 0.9
-0.1 0.5 0.9
0 0.5 0.9
0.1 0.5 0.9
0.2 0.5 0.9
0.3 0.5 0.9
0.4 0.5 0.9
0.5 0.5 0.9
0.6 0.5 0.9
0.7 0.5 0.9
0.8 0.5 0.9
0.9 0.5 0.9
1 0.5 0.9
1.1 0.5 0.9
1.2 0.5 0.9
1.3 0.5 0.9
1.4 0.5 0.9
1.5 0.5 0.9
1.6 0.5 0.9
1.7 0.5 0.9
1.8 0.5 0.9
1.9 0.5 0.9
-0.1 0.6 0.9
0 0.6 0.9
0.1 0.6 0.9
0.2 0.6 0.9
0.3 0.6 0.9
0.4 0.6 0.9
0.5 0.6 0.9
0.6 0.6 0.9
0.7 0.6 0.9
0.8 0.6 0.9
0.9 0.6 0.9
1 0.6 0.9
1.1 0.6 0.9
1.2 0.6 0.9
1.3 0.6 0.9
1.4 0.6 0.9
1.5 0.6 0.9
1.6 0.6 0.9
1.7 0.6 0.9
1.8 0.6 0.9
1.9 0.6 0.9
-0.1 0.7 0.9
0 0.7 0.9
0.1 0.7 0.9
0.2 0.7 0.9
0.3 0.7 0.9
0.4 0.7 0.9
0.5 0.7 0.9
0.6 0.7 0.9
0.7 0.7 0.9
0.8 0.7 0.9
0.9 0.7 0.9
1 0.7 0.9
1.1 0.7 0.9
1.2 0.7 0.9
1.3 0.7 0.9
1.4 0.7 0.9
1.5 0.7 0.9
1.6 0.7 0.9
1.7 0.7 0.9
1.8 0.7 0.9
1.9 0.7 0.9
-0.1 0.8 0.9
0 0.8 0.9
0.1 0.8 0.9
0.2 0.8 0.9
0.3 0.8 0.9
0.4 0.8 0.9
0.5 0.8 0.9
0.6 0.8 0.9
0.7 0.8 0.9
0.8 0.8 0.9
0.9 0.8 0.9
1 0.8 0.9
1.1 0.8 0.9
1.2 0.8 0.9
1.3 0.8 0.9
1.4 0.8 0.9
1.5 0.8 0.9
1.6 0.8 0.9
1.7 0.8 0.9
1.8 0.8 0.9
1.9 0.8 0.9
-0.1 0.9 0.9
0 0.9 0.9
0.1 0.9 0.9
0.2 0.9 0.9
0.3 0.9 0.9
0.4 0.9 0.9
0.5 0.9 0.9
0.6 0.9 0.9
0.7 0.9 0.9
0.8 0.9 0.9
0.9 0.9 0.9
1 0.9 0.9
1.1 0.9 0.9
1.2 0.9 0.9
1.3 0.9 0.9
1.4 0.9 0.9
1.5 0.9 0.9
1.6 0.9 0.9
1.7 0.9 0.9
1.8 0.9 0.9
1.9 0.9 0.9
-0.1 1 0.9
0 1 0.9
0.1 1 0.9
0.2 1 0.9
0.3 1 0.9
0.4 1 0.9
0.5 1 0.9
0.6 1 0.9
0.7 1 0.9
0.8 1 0.9
0.9 1 0.9
1 1 0.9
1.1 1 0.9
1.2 1 0.9
1.3 1 0.9
1.4 1 0.9
1.5 1 0.9
1.6 1 0.9
1.7 1 0.9
1.8 1 0.9
1.9 1 0.9
-0.1 1.1 0.9
0 1.1 0.9
0.1 1.1 0.9
0.2 1.1 0.9
0.3 1.1 0.9
0.4 1.1 0.9
0.5 1.1 0.9
0.6 1.1 0.9
0.7 1.1 0.9
0.8 1.1 0.9
0.9 1.1 0.9
1 1.1 0.9
1.1 1.1 0.9
1.2 1.1 0.9
1.3 1.1 0.9
1.4 1.1 0.9
1.5 1.1 0.9
1.6 1.1 0.9
1.7 1.1 0.9
1.8 1.1 0.9
1.9 1.1 0.9
-0.1 1.2 0.9
0 1.2 0.9
0.1 1.2 0.9
0.2 1.2 0.9
0.3 1.2 0.9
0.4 1.2 0.9
0.5 1.2 0.9
0.6 1.2 0.9
0.7 1.2 0.9
0.8 1.2 0.9
0.9 1.2 0.9
1 1.2 0.9
1.1 1.2 0.9
1.2 1.2 0.9
1.3 1.2 0.9
1.4 1.2 0.9
1.5 1.2 0.9
1.6 1.2 0.9
1.7 1.2 0.9
1.8 1.2 0.9
1.9 1.2 0.9
-0.1 1.3 0.9
0 1.3 0.9
0.1 1.3 0.9
0.2 1.3 0.9
0.3 1.3 0.9
0.4 1.3 0.9
0.5 1.3 0.9
0.6 1.3 0.9
0.7 1.3 0.9
0.8 1.3 0.9
0.9 1.3 0.9
1 1.3 0.9
1.1 1.3 0.9
1.2 1.3 0.9
1.3 1.3 0.9
1.4 1.3 0.9
1.5 1.3 0.9
1.6 1.3 0.9
1.7 1.3 0.9
1.8 1.3 0.9
1.9 1.3 0.9
-0.1 1.4 0.9
0 1.4 0.9
0.1 1.4 0.9
0.2 1.4 0.9
0.3 1.4 0.9
0.4 1.4 0.9
0.5 1.4 0.9
0.6 1.4 0.9
0.7 1.4 0.9
0.8 1.4 0.9
0.9 1.4 0.9
1 1.4 0.9
1.1 1.4 0.9
1.2 1.4 0.9
1.3 1.4 0.9
1.4 1.4 0.9
1.5 1.4 0.9
1.6 1.4 0.9
1.7 1.4 0.9
1.8 1.4 0.9
1.9 1.4 0.9
-0.1 1.5 0.9
0 1.5 0.9
0.1 1.5 0.9
0.2 1.5 0.9
0.3 1.5 0.9
0.4 1.5 0.9
0.5 1.5 0.9
0.6 1.5 0.9
0.7 1.5 0.9
0.8 1.5 0.9
0.9 1.5 0.9
1 1.5 0.9
1.1 1.5 0.9
1.2 1.5 0.9
1.3 1.5 0.9
1.4 1.5 0.9
1.5 1.5 0.9
1.6 1.5 0.9
1.7 1.5 0.9
1.8 1.5 0.9
1.9 1.5 0.9
-0.1 1.6 0.9
0 1.6 0.9
0.1 1.6 0.9
0.2 1.6 0.9
0.3 1.6 0.9
0.4 1.6 0.9
0.5 1.6 0.9
0.6 1.6 0.9
0.7 1.6 0.9
0.8 1.6 0.9
0.9 1.6 0.9
1 1.6 0.9
1.1 1.6 0.9
1.2 1.6 0.9
1.3 1.6 0.9
1.4 1.6 0.9
1.5 1.6 0.9
1.6 1.6 0.9
1.7 1.6 0.9
1.8 1.6 0.9
1.9 1.6 0.9
-0.1 1.7 0.9
0 1.7 0.9
0.1 1.7 0.9
0.2 1.7 0.9
0.3 1.7 0.9
0.4 1.7 0.9
0.5 1.7 0.9
0.6 1.7 0.9
0.7 1.7 0.9
0.8 1.7 0.9
0.9 1.7 0.9
1 1.7 0.9
1.1 1.7 0.9
1.2 1.7 0.9
1.3 1.7 0.9
1.4 1.7 0.9
1.5 1.7 0.9
1.6 1.7 0.9
1.7 1.7 0.9
1.8 1.7 0.9
1.9 1.7 0.9
-0.1 1.8 0.9
0 1.8 0.9
0.1 1.8 0.9
0.2 1.8 0.9
0.3 1.8 0.9
0.4 1.8 0.9
0.5 1.8 0.9
0.6 1.8 0.9
0.7 1.8 0.9
0.8 1.8 0.9
0.9 1.8 0.9
1 1.8 0.9
1.1 1.8 0.9
1.2 1.8 0.9
1.3 1.8 0.9
1.4 1.8 0.9
1.5 1.8 0.9
1.6 1.8 0.9
1.7 1.8 0.9
1.8 1.8 0.9
1.9 1.8 0.9
-0.1 1.9 0.9
0 1.9 0.9
0.1 1.9 0.9
0.2 1.9 0.9
0.3 1.9 0.9
0.4 1.9 0.9
0.5 1.9 0.9
0.6 1.9 0.9
0.7 1.9 0.9
0.8 1.9 0.9
0.9 1.9 0.9
1 1.9 0.9
1.1 1.9 0.9
1.2 1.9 0.9
1.3 1.9 0.9
1.4 1.9 0.9
1.5 1.9 0.9
1.6 1.9 0.9
1.7 1.9 0.9
1.8 1.9 0.9
1.9 1.9 0.9
-0.1 -0.1 1
0 -0.1 1
0.1 -0.1 1
0.2 -0.1 1
0.3 -0.1 1
0.4 -0.1 1
0.5 -0.1 1
0.6 -0.1 1
0.7 -0.1 1
0.8 -0.1 1
0.9 -0.1 1
1 -0.1 1
1.1 -0.1 1
1.2 -0.1 1
1.3 -0.1 1
1.4 -0.1 1
1.5 -0.1 1
1.6 -0.1 1
1.7 -0.1 1
1.8 -0.1 1
1.9 -0.1 1
-0.1 0 1
0 0 1
0.1 0 1
0.2 0 1
0.3 0 1
0.4 0 1
0.5 0 1
0.6 0 1
0.7 0 1
0.8 0 1
0.9 0 1
1 0 1
1.1 0 1
1.2 0 1
1.3 0 1
1.4 0 1
1.5 0 1
1.6 0 1
1.7 0 1
1.8 0 1
1.9 0 1
-0.1 0.1 1
0 0.1 1
0.1 0.1 1
0.2 0.1 1
0.3 0.1 1
0.4 0.1 1
0.5 0.1 1
0.6 0.1 1
0.7 0.1 1
0.8 0.1 1
0.9 0.1 1
1 0.1 1
1.1 0.1 1
1.2 0.1 1
1.3 0.1 1
1.4 0.1 1
1.5 0.1 1
1.6 0.1 1
1.7 0.1 1
1.8 0.1 1
1.9 0.1 1
-0.1 0.2 1
0 0.2 1
0.1 0.2 1
0.2 0.2 1
0.3 0.2 1
0.4 0.2 1
0.5 0.2 1
0.6 0.2 1
0.7 0.2 1
0.8 0.2 1
0.9 0.2 1
1 0.2 1
1.1 0.2 1
1.2 0.2 1
1.3 0.2 1
1.4 0.2 1
1.5 0.2 1
1.6 0.2 1
1.7 0.2 1
1.8 0.2 1
1.9 0.2 1
-0.1 0.3 1
0 0.3 1
0.1 0.3 1
0.2 0.3 1
0.3 0.3 1
0.4 0.3 1
0.5 0.3 1
0.6 0.3 1
0.7 0.3 1
0.8 0.3 1
0.9 0.3 1
1 0.3 1
1.1 0.3 1
1.2 0.3 1
1.3 0.3 1
1.4 0.3 1
1.5 0.3 1
1.6 0.3 1
1.7 0.3 1
1.8 0.3 1
1.9 0.3 1
-0.1 0.4 1
0 0.4 1
0.1 0.4 1
0.2 0.4 1
0.3 0.4 1
0.4 0.4 1
0.5 0.4 1
0.6 0.4 1
0.7 0.4 1
0.8 0.4 1
0.9 0.4 1
1 0.4 1
1.1 0.4 1
1.2 0.4 1
1.3 0.4 1
1.4 0.4 1
1.5 0.4 1
1.6 0.4 1
1.7 0.4 1
1.8 0.4 1
1.9 0.4 1
-0.1 0.5 1
0 0.5 1
0.1 0.5 1
0.2 0.5 1
0.3 0.5 1
0.4 0.5 1
0.5 0.5 1
0.6 0.5 1
0.7 0.5 1
0.8 0.5 1
0.9 0.5 1
1 0.5 1
1.1 0.5 1
1.2 0.5 1
1.3 0.5 1
1.4 0.5 1
1.5 0.5 1
1.6 0.5 1
1.7 0.5 1
1.8 0.5 1
1.9 0.5 1
-0.1 0.6 1
0 0.6 1
0.1 0.6 1
0.2 0.6 1
0.3 0.6 1
0.4 0.6 1
0.5 0.6 1
0.6 0.6 1
0.7 0.6 1
0.8 0.6 1
0.9 0.6 1
1 0.6 1
1.1 0.6 1
1.2 0.6 1
1.3 0.6 1
1.4 0.6 1
1.5 0.6 1
1.6 0.6 1
1.7 0.6 1
1.8 0.6 1
1.9 0.6 1
-0.1 0.7 1
0 0.7 1
0.1 0.7 1
0.2 0.7 1
0.3 0.7 1
0.4 0.7 1
0.5 0.7 1
0.6 0.7 1
0.7 0.7 1
0.8 0.7 1
0.9 0.7 1
1 0.7 1
1.1 0.7 1
1.2 0.7 1
1.3 0.7 1
1.4 0.7 1
1.5 0.7 1
1.6 0.7 1
1.7 0.7 1
1.8 0.7 1
1.9 0.7 1
-0.1 0.8 1
0 0.8 1
0.1 0.8 1
0.2 0.8 1
0.3 0.8 1
0.4 0.8 1
0.5 0.8 1
0.6 0.8 1
0.7 0.8 1
0.8 0.8 1
0.9 0.8 1
1 0.8 1
1.1 0.8 1
1.2 0.8 1
1.3 0.8 1
1.4 0.8 1
1.5 0.8 1
1.6 0.8 1
1.7 0.8 1
1.8 0.8 1
1.9 0.8 1
-0.1 0.9 1
0 0.9 1
0.1 0.9 1
0.2 0.9 1
0.3 0.9 1
0.4 0.9 1
0.5 0.9 1
0.6 0.9 1
0.7 0.9 1
0.8 0.9 1
0.9 0.9 1
1 0.9 1
1.1 0.9 1
1.2 0.9 1
1.3 0.9 1
1.4 0.9 1
1.5 0.9 1
1.6 0.9 1
1.7 0.9 1
1.8 0.9 1
1.9 0.9 1
-0.1 1 1
0 1 1
0.1 1 1
0.2 1 1
0.3 1 1
0.4 1 1
0.5 1 1
0.6 1 1
0.7 1 1
0.8 1 1
0.9 1 1
1 1 1
1.1 1 1
1.2 1 1
1.3 1 1
1.4 1 1
1.5 1 1
1.6 1 1
1.7 1 1
1.8 1 1
1.9 1 1
-0.1 1.1 1
0 1.1 1
0.1 1.1 1
0.2 1.1 1
0.3 1.1 1
0.4 1.1 1
0.5 1.1 1
0.6 1.1 1
0.7 1.1 1
0.8 1.1 1
0.9 1.1 1
1 1.1 1
1.1 1.1 1
1.2 1.1 1
1.3 1.1 1
1.4 1.1 1
1.5 1.1 1
1.6 1.1 1
1.7 1.1 1
1.8 1.1 1
1.9 1.1 1
-0.1 1.2 1
0 1.2 1
0.1 1.2 1
0.2 1.2 1
0.3 1.2 1
0.4 1.2 1
0.5 1.2 1
0.6 1.2 1
0.7 1.2 1
0.8 1.2 1
0.9 1.2 1
1 1.2 1
1.1 1.2 1
1.2 1.2 1
1.3 1.2 1
1.4 1.2 1
1.5 1.2 1
1.6 1.2 1
1.7 1.2 1
1.8 1.2 1
1.9 1.2 1
-0.1 1.3 1
0 1.3 1
0.1 1.3 1
0.2 1.3 1
0.3 1.3 1
0.4 1.3 1
0.5 1.3 1
0.6 1.3 1
0.7 1.3 1
0.8 1.3 1
0.9 1.3 1
1 1.3 1
1.1 1.3 1
1.2 1.3 1
1.3 1.3 1
1.4 1.3 1
1.5 1.3 1
1.6 1.3 1
1.7 1.3 1
1.8 1.3 1
1.9 1.3 1
-0.1 1.4 1
0 1.4 1
0.1 1.4 1
0.2 1.4 1
0.3 1.4 1
0.4 1.4 1
0.5 1.4 1
0.6 1.4 1
0.7 1.4 1
0.8 1.4 1
0.9 1.4 1
1 1.4 1
1.1 1.4 1
1.2 1.4 1
1.3 1.4 1
1.4 1.4 1
1.5 1.4 1
1.6 1.4 1
1.7 1.4 1
1.8 1.4 1
1.9 1.4 1
-0.1 1.5 1
0 1.5 1
0.1 1.5 1
0.2 1.5 1
0.3 1.5 1
0.4 1.5 1
0.5 1.5 1
0.6 1.5 1
0.7 1.5 1
0.8 1.5 1
0.9 1.5 1
1 1.5 1
1.1 1.5 1
1.2 1.5 1
1.3 1.5 1
1.4 1.5 1
1.5 1.5 1
1.6 1.5 1
1.7 1.5 1
1.8 1.5 1
1.9 1.5 1
-0.1 1.6 1
0 1.6 1
0.1 1.6 1
0.2 1.6 1
0.3 1.6 1
0.4 1.6 1
0.5 1.6 1
0.6 1.6 1
0.7 1.6 1
0.8 1.6 1
0.9 1.6 1
1 1.6 1
1.1 1.6 1
1.2 1.6 1
1.3 1.6 1
1.4 1.6 1
1.5 1.6 1
1.6 1.6 1
1.7 1.6 1
1.8 1.6 1
1.9 1.6 1
-0.1 1.7 1
0 1.7 1
0.1 1.7 1
0.2 1.7 1
0.3 1.7 1
0.4 1.7 1
0.5 1.7 1
0.6 1.7 1
0.7 1.7 1
0.8 1.7 1
0.9 1.7 1
1 1.7 1
1.1 1.7 1
1.2 1.7 1
1.3 1.7 1
1.4 1.7 1
1.5 1.7 1
1.6 1.7 1
1.7 1.7 1
1.8 1.7 1
1.9 1.7 1
-0.1 1.8 1
0 1.8 1
0.1 1.8 1
0.2 1.8 1
0.3 1.8 1
0.4 1.8 1
0.5 1.8 1
0.6 1.8 1
0.7 1.8 1
0.8 1.8 1
0.9 1.8 1
1 1.8 1
1.1 1.8 1
1.2 1.8 1
1.3 1.8 1
1.4 1.8 1
1.5 1.8 1
1.6 1.8 1
1.7 1.8 1
1.8 1.8 1
1.9 1.8 1
-0.1 1.9 1
0 1.9 1
0.1 1.9 1
0.2 1.9 1
0.3 1.9 1
0.4 1.9 1
0.5 1.9 1
0.6 1.9 1
0.7 1.9 1
0.8 1.9 1
0.9 1.9 1
1 1.9 1
1.1 1.9 1
1.2 1.9 1
1.3 1.9 1
1.4 1.9 1
1.5 1.9 1
1.6 1.9 1
1.7 1.9 1
1.8 1.9 1
1.9 1.9 1
-0.1 -0.1 1.1
0 -0.1 1.1
0.1 -0.1 1.1
0.2 -0.1 1.1
0.3 -0.1 1.1
0.4 -0.1 1.1
0.5 -0.1 1.1
0.6 -0.1 1.1
0.7 -0.1 1.1
0.8 -0.1 1.1
0.9 -0.1 1.1
1 -0.1 1.1
1.1 -0.1 1.1
1.2 -0.1 1.1
1.3 -0.1 1.1
1.4 -0.1 1.1
1.5 -0.1 1.1
1.6 -0.1 1.1
1.7 -0.1 1.1
1.8 -0.1 1.1
1.9 -0.1 1.1
-0.1 0 1.1
0 0 1.1
0.1 0 1.1
0.2 0 1.1
0.3 0 1.1
0.4 0 1.1
0.5 0 1.1
0.6 0 1.1
0.7 0 1.1
0.8 0 1.1
0.9 0 1.1
1 0 1.1
1.1 0 1.1
1.2 0 1.1
1.3 0 1.1
1.4 0 1.1
1.5 0 1.1
[...]
CELL_DATA 4000
VECTORS velocity double 
5.79396e-05 -6.04306e-05 0.00383169
9.94778e-05 -4.91558e-05 0.00553348
0.000106305 -4.51338e-05 0.00602329
9.1618e-05 -4.7384e-05 0.00619107
6.48506e-05 -5.06551e-05 0.00625277
3.08368e-05 -5.38974e-05 0.00626225
-7.1257e-06 -5.73038e-05 0.00623365
-4.61451e-05 -6.11777e-05 0.00617238
-8.33498e-05 -6.54423e-05 0.00608188
-0.000115915 -6.97789e-05 0.00596574
-0.000141183 -7.36774e-05 0.00582891
-0.000157422 -7.64818e-05 0.00567854
-0.000163829 -7.74449e-05 0.00552431
-0.000161477 -7.58536e-05 0.00537822
-0.000153639 -7.13226e-05 0.00525318
-0.000145281 -6.38633e-05 0.00516073
-0.000142702 -5.47949e-05 0.00510292
-0.000149529 -4.62635e-05 0.00503965
-0.000156683 -4.07549e-05 0.0047632
-7.83414e-05 -2.8507e-05 0.00340526
8.67917e-05 -0.00027107 0.00576095
0.000139575 -0.000305639 0.00893313
0.000148082 -0.000317239 0.00988728
0.000130217 -0.0003305 0.0101953
9.62876e-05 -0.000340719 0.0102983
5.11935e-05 -0.000348361 0.010309
-1.61071e-06 -0.000355281 0.0102537
-5.84987e-05 -0.000362774 0.0101409
-0.000115506 -0.000370966 0.00997611
-0.000168415 -0.00037917 0.00976547
-0.000212941 -0.000386103 0.00951764
-0.000245624 -0.000390171 0.00924546
-0.000264128 -0.000389377 0.00896577
-0.000268599 -0.00038204 0.00870008
-0.000262195 -0.000366867 0.0084724
-0.000251626 -0.000343865 0.00830532
-0.000246249 -0.000315518 0.00820294
-0.000253434 -0.000287108 0.00808391
-0.000257347 -0.000263877 0.00753963
-0.000128673 -0.00021426 0.00506362
8.06927e-05 -0.000679286 0.00654309
0.000121329 -0.000829371 0.0100754
0.000119026 -0.000880772 0.011121
9.3374e-05 -0.000915975 0.0114565
5.33733e-05 -0.000937572 0.0115717
2.49039e-06 -0.000950822 0.0115851
-5.66708e-05 -0.000960985 0.0115203
-0.000120504 -0.00097102 0.0113838
-0.000184564 -0.000981602 0.0111807
-0.000243785 -0.000991824 0.0109178
-0.000292867 -0.000999495 0.0106053
-0.000326974 -0.00100189 0.0102584
-0.000342774 -0.000995504 0.00989798
-0.000339449 -0.000977212 0.00955174
-0.000320141 -0.000944704 0.00925222
-0.000292848 -0.000897559 0.00903305
-0.000270131 -0.000839355 0.00891166
-0.000263884 -0.000778574 0.00881389
-0.000262029 -0.000722721 0.00830034
-0.000131014 -0.000590667 0.00567784
4.85628e-05 -0.00130049 0.00683215
5.7273e-05 -0.00164974 0.0101312
3.40057e-05 -0.00176829 0.0110399
-3.33154e-06 -0.00183778 0.011332
-4.98673e-05 -0.00187603 0.0114429
-0.000105132 -0.00189657 0.0114597
-0.000167963 -0.00190986 0.0113919
-0.00023513 -0.00192145 0.0112409
-0.000301851 -0.00193297 0.0110105
-0.000362076 -0.00194325 0.0107073
-0.000409419 -0.00194922 0.010342
-0.000437446 -0.00194668 0.00993115
-0.000441544 -0.00193058 0.00949925
-0.000419982 -0.00189573 0.00907941
-0.000375533 -0.00183841 0.0087132
-0.000317657 -0.00175763 0.00844785
-0.000262672 -0.00165781 0.00832392
-0.000229721 -0.0015506 0.0083093
-0.000218546 -0.00144327 0.00803231
-0.000109273 -0.00116662 0.00581601
-8.30056e-06 -0.00213648 0.00658609
-5.1435e-05 -0.0027828 0.00914208
-0.000106045 -0.00300016 0.00972051
-0.000158938 -0.00311799 0.00990631
-0.000212379 -0.00317907 0.00999618
-0.000270549 -0.00320911 0.0100142
-0.000334632 -0.00322575 0.00994607
-0.00040216 -0.00323817 0.00978498
-0.000468011 -0.00324922 0.00953248
-0.000525114 -0.00325768 0.0091944
-0.000565721 -0.00325956 0.00878149
-0.000581755 -0.00324901 0.00831132
-0.000566663 -0.00321905 0.00781162
-0.000517559 -0.00316211 0.00732157
-0.000436785 -0.00307213 0.00689228
-0.000335024 -0.0029473 0.00658774
-0.000233045 -0.00279257 0.00648073
-0.000160094 -0.00262297 0.00661041
-0.000135811 -0.00244074 0.00675383
-6.79055e-05 -0.00194252 0.00543467
-9.18038e-05 -0.00316471 0.00557707
-0.000208397 -0.00421574 0.00677165
-0.000305742 -0.00456764 0.00679217
-0.000378482 -0.0047491 0.00679402
-0.000439236 -0.0048398 0.00683866
-0.000498792 -0.00488197 0.00685206
-0.000561587 -0.00490266 0.0067844
-0.000626277 -0.00491555 0.00661717
-0.000687564 -0.00492519 0.00634818
-0.00073739 -0.00493045 0.00598196
-0.000766341 -0.00492647 0.00552864
-0.000764498 -0.00490553 0.00500688
-0.000722885 -0.00485824 0.00444752
-0.000636593 -0.00477424 0.00389585
-0.00050753 -0.00464459 0.00341388
-0.000347391 -0.00446523 0.00308464
-0.000182423 -0.00424179 0.00302336
-5.45674e-05 -0.00399142 0.00337182
-1.21152e-05 -0.00370587 0.00415017
-6.05762e-06 -0.00289854 0.00432009
-0.00020418 -0.00432543 0.0035223
-0.000417709 -0.00588941 0.00256939
-0.00057014 -0.00641384 0.00174806
-0.000667533 -0.00667456 0.00146661
-0.000736244 -0.00680161 0.00143252
-0.000795759 -0.00685861 0.00143189
-0.000854707 -0.00688417 0.00136508
-0.000913304 -0.00689749 0.00119727
-0.000966351 -0.00690516 0.000920932
-0.00100479 -0.00690639 0.000538419
-0.0010173 -0.00689549 5.88595e-05
-0.0009917 -0.00686288 -0.000498538
-0.000916255 -0.00679628 -0.0011005
-0.000783354 -0.00668186 -0.00169598
-0.00059324 -0.00650697 -0.00221162
-0.00035913 -0.00626448 -0.00254143
-0.000112775 -0.00595899 -0.00251693
8.73001e-05 -0.005609 -0.00185625
0.0001546 -0.00518771 -0.000184806
7.72998e-05 -0.00397977 0.0022092
-0.000346091 -0.005509 0.000150833
-0.000680285 -0.00767808 -0.00389311
-0.000899931 -0.00841054 -0.00589944
-0.00102642 -0.00876413 -0.00658785
-0.00110351 -0.00893308 -0.00674432
-0.0011614 -0.00900715 -0.00677289
-0.0012139 -0.00903844 -0.00684043
-0.0012632 -0.00905254 -0.00700379
-0.00130449 -0.00905847 -0.00727756
-0.0013279 -0.00905585 -0.00766248
-0.00132011 -0.00903838 -0.00815103
-0.00126616 -0.00899477 -0.00872413
-0.00115098 -0.00890954 -0.00934649
-0.000963389 -0.00876493 -0.00996137
-0.000701049 -0.00854327 -0.0104836
-0.000377396 -0.0082329 -0.0107807
-3.05811e-05 -0.00783535 -0.0106173
0.000261082 -0.00736811 -0.00952827
0.000362068 -0.00677674 -0.00665162
0.000181034 -0.00508479 -0.00115139
-0.000513655 -0.00654758 -0.00475259
-0.000989145 -0.00937677 -0.0129616
-0.00128624 -0.0103438 -0.0165496
-0.00144543 -0.0107986 -0.0177913
-0.00153103 -0.011012 -0.0181233
-0.00158586 -0.0111041 -0.0181977
-0.00162977 -0.0111417 -0.0182692
-0.00166734 -0.0111572 -0.0184236
-0.0016943 -0.0111624 -0.0186847
-0.00170028 -0.0111575 -0.0190565
-0.00167018 -0.0111358 -0.0195338
-0.0015858 -0.0110845 -0.0200983
-0.00142821 -0.0109854 -0.0207131
-0.00118142 -0.0108161 -0.0213162
-0.000839082 -0.0105529 -0.0218102
-0.000413124 -0.0101772 -0.0220327
5.20531e-05 -0.00968498 -0.0216662
0.000455518 -0.0090879 -0.0200126
0.000601353 -0.00829483 -0.0155732
0.000300677 -0.00605901 -0.00596613
-0.000696893 -0.00721452 -0.0112869
-0.00132603 -0.0106953 -0.0247844
-0.00170583 -0.0119057 -0.0303764
-0.00189892 -0.0124604 -0.0323296
-0.00199262 -0.0127156 -0.0328958
-0.00204323 -0.0128242 -0.0330367
-0.00207723 -0.0128679 -0.0331168
-0.00210197 -0.0128854 -0.0332586
-0.00211385 -0.0128914 -0.0334974
-0.00210232 -0.0128871 -0.033841
-0.00205096 -0.0128656 -0.0342859
-0.00193849 -0.0128136 -0.0348154
-0.00174138 -0.0127105 -0.035392
-0.00143768 -0.0125292 -0.0359491
-0.00101468 -0.0122391 -0.0363769
-0.00048074 -0.0118124 -0.0364791
0.000115744 -0.011235 -0.0358404
0.000648621 -0.0105072 -0.0334749
0.000852168 -0.00949044 -0.027092
0.000426084 -0.00669428 -0.0123306
-0.00087758 -0.0072373 -0.0193537
-0.00165731 -0.0112688 -0.0391782
-0.00211622 -0.0127025 -0.0471736
-0.00234025 -0.013341 -0.0499904
-0.00244048 -0.0136275 -0.0508469
-0.0024862 -0.0137478 -0.0510747
-0.00251022 -0.0137961 -0.0511694
-0.00252281 -0.0138162 -0.0512961
-0.00252143 -0.0138249 -0.0515048
-0.00249581 -0.0138248 -0.0518074
-0.00242871 -0.0138099 -0.0522022
-0.00229649 -0.013767 -0.0526737
-0.00207078 -0.0136745 -0.0531847
-0.0017225 -0.013502 -0.0536657
-0.00123041 -0.0132115 -0.0539947
-0.000595118 -0.012764 -0.0539381
0.00013385 -0.0121305 -0.0529642
0.000806037 -0.0112903 -0.0497468
0.00108037 -0.0100468 -0.0410556
0.000540183 -0.00673917 -0.02016
-0.00102767 -0.00633072 -0.0285828
-0.00193098 -0.0106924 -0.055498
-0.00245142 -0.0122892 -0.0661989
-0.00269716 -0.0129753 -0.069994
-0.00280053 -0.0132732 -0.0711814
-0.00284143 -0.0133956 -0.0715105
-0.00285717 -0.0134452 -0.0716248
-0.00286056 -0.0134677 -0.071737
-0.00285071 -0.0134809 -0.0719114
-0.00281821 -0.0134889 -0.0721655
-0.00274602 -0.0134874 -0.0724992
-0.00260932 -0.0134652 -0.0728985
-0.00237566 -0.0134017 -0.0733281
-0.00200867 -0.0132653 -0.0737172
-0.00147593 -0.0130126 -0.0739333
-0.00076615 -0.0125928 -0.0737014
7.66636e-05 -0.011957 -0.0723577
0.000882995 -0.0110515 -0.0681858
0.00123886 -0.00960986 -0.0569005
0.000619428 -0.00592851 -0.0291225
-0.00110875 -0.00425704 -0.0382883
-0.00207517 -0.00858983 -0.0725423
-0.00262062 -0.0102384 -0.0860448
-0.00287042 -0.0109122 -0.0908493
-0.00297069 -0.0111911 -0.0923744
-0.00300705 -0.0113022 -0.0928051
-0.0030181 -0.0113478 -0.0929402
-0.00301783 -0.0113715 -0.09304
-0.00300714 -0.01139 -0.093182
-0.00297843 -0.0114088 -0.0933878
-0.00291646 -0.0114262 -0.0936602
-0.00279689 -0.0114348 -0.0939879
-0.00258554 -0.0114181 -0.0943394
-0.00223998 -0.0113475 -0.094646
-0.00171594 -0.0111786 -0.0947676
-0.000985434 -0.0108513 -0.094387
-7.75726e-05 -0.0102941 -0.0926959
0.000831923 -0.00940786 -0.0875545
0.0012717 -0.00784419 -0.0735636
0.000635849 -0.00403705 -0.0386
-0.00107255 -0.000916292 -0.0474768
-0.00199974 -0.00471955 -0.0885046
-0.00251049 -0.0062507 -0.104539
-0.00273717 -0.00682844 -0.110227
-0.00282522 -0.00704945 -0.112035
-0.00285689 -0.00713334 -0.112545
-0.00286789 -0.00716872 -0.112695
-0.0028712 -0.00719109 -0.112784
-0.00286913 -0.00721425 -0.1129
-0.00285676 -0.00724389 -0.113068
-0.00282236 -0.00728203 -0.113292
-0.00274499 -0.00732656 -0.113566
-0.00259255 -0.0073686 -0.113866
-0.00232031 -0.00738764 -0.114132
-0.00187461 -0.00734581 -0.114222
-0.00120804 -0.00718155 -0.113782
-0.000324261 -0.00680469 -0.111861
0.000617363 -0.00606263 -0.1059
0.00112465 -0.00451727 -0.0894211
0.000562326 -0.000957311 -0.0476905
-0.000862921 0.00354316 -0.0548466
-0.00160241 0.000884596 -0.100828
-0.00199534 -0.000307704 -0.118493
-0.0021628 -0.000691129 -0.124654
-0.00222732 -0.000812973 -0.126578
-0.00225405 -0.000854174 -0.127109
-0.0022699 -0.000873596 -0.127256
-0.00228461 -0.000891574 -0.127336
-0.00230087 -0.000916511 -0.127437
-0.00231696 -0.00095381 -0.127584
-0.0023261 -0.00100882 -0.127783
-0.00231411 -0.00108585 -0.128037
-0.00225573 -0.00118592 -0.128334
-0.00211143 -0.00130211 -0.128628
-0.00182525 -0.00141194 -0.128791
-0.00133456 -0.00146645 -0.128454
-0.000609461 -0.00137122 -0.126564
0.000237387 -0.000926861 -0.120229
0.000759163 0.000388156 -0.102082
0.000379582 0.00320408 -0.0551823
-0.000426931 0.00859675 -0.0585762
-0.000791866 0.00774819 -0.105397
-0.000969087 0.00714647 -0.122599
-0.00103695 0.00704981 -0.128318
-0.00106572 0.00705795 -0.130008
-0.0010874 0.00706912 -0.130441
-0.00111308 0.00706954 -0.130552
-0.00114672 0.00705921 -0.13062
-0.00119019 0.00703711 -0.130716
-0.00124455 0.00699873 -0.130861
-0.00130873 0.00693648 -0.131064
-0.00137741 0.00684035 -0.131334
-0.00143766 0.0066993 -0.131678
-0.00146381 0.00650416 -0.132077
-0.00141144 0.00625426 -0.132438
-0.00121694 0.00596982 -0.132428
-0.000821452 0.00572232 -0.131017
-0.000260476 0.00572455 -0.125264
0.000165835 0.00653604 -0.107463
8.29175e-05 0.0080123 -0.0592854
0.000279311 0.0132039 -0.0547778
0.000481598 0.014724 -0.0935931
0.000602668 0.0149257 -0.106252
0.000659108 0.0151638 -0.109938
0.000667455 0.015306 -0.110842
0.000642996 0.0153675 -0.111007
0.00059567 0.0153879 -0.111037
0.000529792 0.015388 -0.111085
0.00044557 0.0153739 -0.111181
0.000340886 0.015343 -0.111334
0.000212248 0.0152869 -0.111554
5.60238e-05 0.0151926 -0.111858
-0.00012968 0.0150419 -0.112268
-0.00034085 0.0148128 -0.112802
-0.000560777 0.0144804 -0.113432
-0.000751438 0.0140262 -0.113953
-0.000852975 0.0134684 -0.113611
-0.000816705 0.012969 -0.110061
-0.000672794 0.0130091 -0.0966781
-0.000336397 0.0125426 -0.0559985
0.00123643 0.0156844 -0.0308991
0.00212523 0.0196809 -0.0426131
0.00255583 0.0207059 -0.0442348
0.0027109 0.0212234 -0.0439984
0.00272288 0.0214605 -0.0436245
0.00266097 0.0215559 -0.0434021
0.00255727 0.0215922 -0.0433232
0.00242553 0.0216043 -0.0433434
0.00227005 0.0216025 -0.0434338
0.00209023 0.0215862 -0.0435863
0.00188118 0.021548 -0.0438076
0.00163354 0.0214756 -0.044118
0.00133345 0.0213502 -0.0445506
0.000961959 0.0211447 -0.045152
0.000497692 0.020821 -0.0459731
-7.64647e-05 0.0203295 -0.0470257
-0.000754025 0.0196266 -0.0481524
-0.00145286 0.0187588 -0.0486791
-0.00183357 0.0179399 -0.0463189
-0.000916787 0.0151615 -0.0324862
0.00219127 0.0138223 0.0590936
0.00361537 0.018926 0.110292
0.00417914 0.0202263 0.125562
0.00428813 0.0207717 0.13004
0.00419203 0.0210039 0.131449
0.00400425 0.0210978 0.131914
0.00377333 0.0211379 0.132051
0.00352024 0.0211569 0.132052
0.00325379 0.0211649 0.131983
0.00297614 0.0211624 0.131861
0.00268364 0.0211449 0.131683
0.00236625 0.0211037 0.131435
0.0020048 0.0210254 0.131089
0.00156649 0.020889 0.130595
0.000998622 0.0206619 0.129859
0.000222163 0.0202946 0.128694
-0.000858159 0.0197236 0.126604
-0.00223613 0.0189114 0.121793
-0.0032606 0.0177562 0.107032
-0.0016303 0.0135132 0.057551
0.00198315 0.00691113 0.38748
0.00310286 0.00946302 0.527196
0.00333365 0.0101131 0.551619
0.00317074 0.0103859 0.55634
0.00288383 0.0105019 0.557437
0.0025747 0.0105489 0.557734
0.00227696 0.0105689 0.557809
0.00200055 0.0105784 0.557805
0.00174699 0.0105825 0.557762
0.00151395 0.0105812 0.557691
0.00129608 0.0105724 0.557591
0.00108399 0.0105519 0.557459
0.000861861 0.0105127 0.557283
0.000601819 0.0104445 0.557036
0.000254497 0.010331 0.556663
-0.000266981 0.0101473 0.556011
-0.00109425 0.0098618 0.554546
-0.00228811 0.0094557 0.549611
-0.00320459 0.00887809 0.525374
-0.0016023 0.00675662 0.386366
5.34207e-05 3.82995e-05 0.00382371
0.000104394 6.58077e-05 0.00560279
0.00012253 7.61842e-05 0.00611411
0.000116473 7.8688e-05 0.00628991
9.45877e-05 7.83464e-05 0.0063579
6.20486e-05 7.66177e-05 0.00637379
2.24205e-05 7.3699e-05 0.00635171
-2.12868e-05 6.95782e-05 0.00629666
-6.61722e-05 6.43281e-05 0.00621155
-0.000109136 5.81778e-05 0.00609939
-0.000147002 5.16191e-05 0.00596458
-0.000176963 4.53793e-05 0.0058138
-0.000196934 4.01747e-05 0.00565667
-0.000206255 3.68735e-05 0.00550545
-0.000206209 3.62532e-05 0.00537397
-0.000200184 3.86226e-05 0.00527511
-0.00019238 4.33293e-05 0.00521188
-0.000184831 4.89255e-05 0.00514262
-0.000169513 5.42604e-05 0.00484789
-8.47567e-05 6.11346e-05 0.00342165
8.5583e-05 5.96805e-06 0.00591478
0.000154214 3.06674e-05 0.00926615
0.000180655 4.09159e-05 0.0102729
0.00017711 4.16517e-05 0.0105995
0.000152792 3.96093e-05 0.0107137
0.000112882 3.60297e-05 0.0107335
6.09883e-05 3.02965e-05 0.010686
4.83133e-07 2.18294e-05 0.0105794
-6.49966e-05 1.05958e-05 0.0104184
-0.000131131 -2.69292e-06 0.0102088
-0.000193105 -1.68826e-05 0.00995864
-0.000246412 -3.04677e-05 0.00967999
-0.000287069 -4.1412e-05 0.00938986
-0.000312736 -4.75042e-05 0.00911054
-0.000323802 -4.667e-05 0.0088677
-0.000324117 -3.80099e-05 0.00868616
-0.000319535 -2.24554e-05 0.00857208
-0.000313326 -3.89604e-06 0.00844033
-0.000288428 1.33349e-05 0.00785643
-0.000144214 3.25499e-05 0.00522556
9.35668e-05 -0.000198698 0.00687973
0.000163012 -0.000224353 0.0106589
0.000187122 -0.000230968 0.0117734
0.000180489 -0.000239558 0.0121342
0.000152276 -0.000246066 0.0122647
0.000107026 -0.000251983 0.0122894
4.79019e-05 -0.000260133 0.0122332
-2.17266e-05 -0.000272119 0.0121023
-9.76465e-05 -0.000288228 0.0119015
-0.000174829 -0.000307568 0.0116369
-0.000247584 -0.000328238 0.0113179
-0.000309995 -0.000347671 0.0109588
-0.00035666 -0.000362352 0.0105807
-0.000383861 -0.000368296 0.0102123
-0.000391357 -0.000361753 0.00988835
-0.000383287 -0.000340693 0.00964579
-0.000367991 -0.000306546 0.00950561
-0.000352025 -0.000265666 0.00939088
-0.000319072 -0.000226471 0.00883064
-0.000159536 -0.000166214 0.00600312
8.25158e-05 -0.000633428 0.00739681
0.000138474 -0.000777394 0.0110001
0.000152826 -0.0008221 0.0119878
0.000140069 -0.000849692 0.0123109
0.000107152 -0.000864642 0.0124414
5.68009e-05 -0.000873967 0.0124722
-8.55271e-06 -0.000884079 0.0124141
-8.56177e-05 -0.000898548 0.0122685
-0.000169816 -0.000918048 0.0120389
-0.000255245 -0.000941554 0.0117311
-0.000335098 -0.000966548 0.0113547
-0.000401903 -0.000989226 0.0109253
-0.000448473 -0.00100432 0.0104674
-0.000469454 -0.00100569 0.0100152
-0.0004636 -0.000987584 0.00961321
-0.000435709 -0.00094638 0.00931324
-0.000396908 -0.000883731 0.00916164
-0.000359746 -0.00080896 0.00912659
-0.000315415 -0.000733419 0.00880418
-0.000157708 -0.000581638 0.00634697
5.14934e-05 -0.00133934 0.00742051
7.805e-05 -0.00169272 0.0103318
7.44375e-05 -0.00180244 0.010995
5.24986e-05 -0.00186113 0.0112173
1.45077e-05 -0.00188978 0.0113316
-3.9907e-05 -0.00190425 0.0113668
-0.00010993 -0.00191629 0.0113096
-0.000192394 -0.00193195 0.0111537
-0.000282428 -0.00195301 0.0109004
-0.000373348 -0.00197838 0.0105545
-0.000457033 -0.00200493 0.0101253
-0.000524155 -0.00202745 0.00962934
-0.000565343 -0.00203875 0.00909391
-0.000573267 -0.00203017 0.00855943
-0.000545211 -0.00199323 0.00808077
-0.000486485 -0.00192258 0.00772788
-0.000411866 -0.00181962 0.00758241
-0.000342203 -0.0016968 0.0076888
-0.00028247 -0.00156538 0.00779486
-0.000141235 -0.00125074 0.00620897
-2.82119e-06 -0.00233596 0.00670471
-2.43996e-05 -0.00301218 0.00829243
-5.5855e-05 -0.00322039 0.00839772
-9.07272e-05 -0.00332469 0.00844041
-0.00013427 -0.00337359 0.00851463
-0.000191563 -0.00339552 0.00854877
-0.000263911 -0.00340966 0.00849357
-0.000348967 -0.00342555 0.00833138
-0.000441625 -0.00344632 0.00805994
-0.000534421 -0.00347111 0.00768259
-0.000617751 -0.00349612 0.00720771
-0.00068023 -0.00351469 0.00665242
-0.000709882 -0.00351743 0.00604682
-0.000696714 -0.00349289 0.00543734
-0.00063641 -0.00342936 0.00489023
-0.000534379 -0.00331868 0.00449681
-0.000409798 -0.0031619 0.00438478
-0.000294553 -0.0029741 0.0047082
-0.000215152 -0.00276164 0.00546462
-0.000107576 -0.00219238 0.00535765
-8.4427e-05 -0.00360884 0.00493659
-0.00017629 -0.00473826 0.00438986
-0.000247214 -0.00508403 0.00364348
-0.000299612 -0.00525036 0.00340471
-0.000349253 -0.00532674 0.00340495
-0.000407962 -0.00535911 0.00342852
-0.000480067 -0.00537587 0.00337572
-0.000564327 -0.00539121 0.00321281
-0.0006557 -0.00540999 0.00293234
-0.000745926 -0.00543171 0.00253542
-0.000823811 -0.005452 0.00202895
-0.000875669 -0.00546285 0.0014299
-0.000886639 -0.00545241 0.000770416
-0.000843424 -0.00540601 0.000102777
-0.000739168 -0.00530802 -0.000494925
-0.000579445 -0.00514676 -0.000906202
-0.000388301 -0.00492187 -0.000945219
-0.000212113 -0.00465061 -0.000308771
-0.000107678 -0.00432608 0.00136771
-5.38392e-05 -0.00339323 0.00350195
-0.000196256 -0.00509318 0.00179976
-0.000382666 -0.00681074 -0.00186825
-0.000505821 -0.00733586 -0.00382444
-0.000580582 -0.00758066 -0.00447324
-0.000637074 -0.00769184 -0.00459228
-0.000695526 -0.00773757 -0.00459375
-0.00076444 -0.00775786 -0.00464589
-0.000844032 -0.00777222 -0.00480431
-0.000929541 -0.00778773 -0.00508346
-0.0010121 -0.00780444 -0.0054854
-0.00107902 -0.00781757 -0.00600526
-0.00111408 -0.00781782 -0.00662692
-0.00109912 -0.00779095 -0.00731688
-0.00101679 -0.00771858 -0.00801739
-0.000856901 -0.00758039 -0.00863794
-0.000624234 -0.00735989 -0.00903345
-0.000348622 -0.007054 -0.00894544
-9.40586e-05 -0.00667981 -0.00787547
4.26236e-05 -0.00620737 -0.00495277
2.13118e-05 -0.00479389 0.000345213
-0.000337839 -0.00665745 -0.00298201
-0.000642996 -0.00908462 -0.0109051
-0.000830712 -0.00982859 -0.0144879
-0.000932533 -0.0101658 -0.0157005
-0.000996325 -0.0103175 -0.015995
-0.00105292 -0.010379 -0.0160406
-0.0011157 -0.0104038 -0.0160957
-0.0011869 -0.0104172 -0.0162449
-0.00126225 -0.0104289 -0.0165119
-0.00133247 -0.0104397 -0.0169023
-0.00138355 -0.0104447 -0.0174137
-0.00139665 -0.0104334 -0.0180316
-0.00134978 -0.0103896 -0.0187216
-0.00122085 -0.0102907 -0.0194214
-0.000994992 -0.010111 -0.0200275
-0.000675114 -0.00982759 -0.0203626
-0.000296467 -0.00943236 -0.0200799