# vtk DataFile Version 2.0 
Visualization 
ASCII 
DATASET STRUCTURED_GRID 
DIMENSIONS 21 21 11
POINTS 4851 float
-0.1 -0.1 -0.1
0 -0.1 -0.1
0.1 -0.1 -0.1
0.2 -0.1 -0.1
0.3 -0.1 -0.1
0.4 -0.1 -0.1
0.5 -0.1 -0.1
0.6 -0.1 -0.1
0.7 -0.1 -0.1
0.8 -0.1 -0.1
0.9 -0.1 -0.1
1 -0.1 -0.1
1.1 -0.1 -0.1
1.2 -0.1 -0.1
1.3 -0.1 -0.1
1.4 -0.1 -0.1
1.5 -0.1 -0.1
1.6 -0.1 -0.1
1.7 -0.1 -0.1
1.8 -0.1 -0.1
1.9 -0.1 -0.1
-0.1 0 -0.1
0 0 -0.1
0.1 0 -0.1
0.2 0 -0.1
0.3 0 -0.1
0.4 0 -0.1
0.5 0 -0.1
0.6 0 -0.1
0.7 0 -0.1
0.8 0 -0.1
0.9 0 -0.1
1 0 -0.1
1.1 0 -0.1
1.2 0 -0.1
1.3 0 -0.1
1.4 0 -0.1
1.5 0 -0.1
1.6 0 -0.1
1.7 0 -0.1
1.8 0 -0.1
1.9 0 -0.1
-0.1 0.1 -0.1
0 0.1 -0.1
0.1 0.1 -0.1
0.2 0.1 -0.1
0.3 0.1 -0.1
0.4 0.1 -0.1
0.5 0.1 -0.1
0.6 0.1 -0.1
0.7 0.1 -0.1
0.8 0.1 -0.1
0.9 0.1 -0.1
1 0.1 -0.1
1.1 0.1 -0.1
1.2 0.1 -0.1
1.3 0.1 -0.1
1.4 0.1 -0.1
1.5 0.1 -0.1
1.6 0.1 -0.1
1.7 0.1 -0.1
1.8 0.1 -0.1
1.9 0.1 -0.1
-0.1 0.2 -0.1
0 0.2 -0.1
0.1 0.2 -0.1
0.2 0.2 -0.1
0.3 0.2 -0.1
0.4 0.2 -0.1
0.5 0.2 -0.1
0.6 0.2 -0.1
0.7 0.2 -0.1
0.8 0.2 -0.1
0.9 0.2 -0.1
1 0.2 -0.1
1.1 0.2 -0.1
1.2 0.2 -0.1
1.3 0.2 -0.1
1.4 0.2 -0.1
1.5 0.2 -0.1
1.6 0.2 -0.1
1.7 0.2 -0.1
1.8 0.2 -0.1
1.9 0.2 -0.1
-0.1 0.3 -0.1
0 0.3 -0.1
0.1 0.3 -0.1
0.2 0.3 -0.1
0.3 0.3 -0.1
0.4 0.3 -0.1
0.5 0.3 -0.1
0.6 0.3 -0.1
0.7 0.3 -0.1
0.8 0.3 -0.1
0.9 0.3 -0.1
1 0.3 -0.1
1.1 0.3 -0.1
1.2 0.3 -0.1
1.3 0.3 -0.1
1.4 0.3 -0.1
1.5 0.3 -0.1
1.6 0.3 -0.1
1.7 0.3 -0.1
1.8 0.3 -0.1
1.9 0.3 -0.1
-0.1 0.4 -0.1
0 0.4 -0.1
0.1 0.4 -0.1
0.2 0.4 -0.1
0.3 0.4 -0.1
0.4 0.4 -0.1
0.5 0.4 -0.1
0.6 0.4 -0.1
0.7 0.4 -0.1
0.8 0.4 -0.1
0.9 0.4 -0.1
1 0.4 -0.1
1.1 0.4 -0.1
1.2 0.4 -0.1
1.3 0.4 -0.1
1.4 0.4 -0.1
1.5 0.4 -0.1
1.6 0.4 -0.1
1.7 0.4 -0.1
1.8 0.4 -0.1
1.9 0.4 -0.1
-0.1 0.5 -0.1
0 0.5 -0.1
0.1 0.5 -0.1
0.2 0.5 -0.1
0.3 0.5 -0.1
0.4 0.5 -0.1
0.5 0.5 -0.1
0.6 0.5 -0.1
0.7 0.5 -0.1
0.8 0.5 -0.1
0.9 0.5 -0.1
1 0.5 -0.1
1.1 0.5 -0.1
1.2 0.5 -0.1
1.3 0.5 -0.1
1.4 0.5 -0.1
1.5 0.5 -0.1
1.6 0.5 -0.1
1.7 0.5 -0.1
1.8 0.5 -0.1
1.9 0.5 -0.1
-0.1 0.6 -0.1
0 0.6 -0.1
0.1 0.6 -0.1
0.2 0.6 -0.1
0.3 0.6 -0.1
0.4 0.6 -0.1
0.5 0.6 -0.1
0.6 0.6 -0.1
0.7 0.6 -0.1
0.8 0.6 -0.1
0.9 0.6 -0.1
1 0.6 -0.1
1.1 0.6 -0.1
1.2 0.6 -0.1
1.3 0.6 -0.1
1.4 0.6 -0.1
1.5 0.6 -0.1
1.6 0.6 -0.1
1.7 0.6 -0.1
1.8 0.6 -0.1
1.9 0.6 -0.1
-0.1 0.7 -0.1
0 0.7 -0.1
0.1 0.7 -0.1
0.2 0.7 -0.1
0.3 0.7 -0.1
0.4 0.7 -0.1
0.5 0.7 -0.1
0.6 0.7 -0.1
0.7 0.7 -0.1
0.8 0.7 -0.1
0.9 0.7 -0.1
1 0.7 -0.1
1.1 0.7 -0.1
1.2 0.7 -0.1
1.3 0.7 -0.1
1.4 0.7 -0.1
1.5 0.7 -0.1
1.6 0.7 -0.1
1.7 0.7 -0.1
1.8 0.7 -0.1
1.9 0.7 -0.1
-0.1 0.8 -0.1
0 0.8 -0.1
0.1 0.8 -0.1
0.2 0.8 -0.1
0.3 0.8 -0.1
0.4 0.8 -0.1
0.5 0.8 -0.1
0.6 0.8 -0.1
0.7 0.8 -0.1
0.8 0.8 -0.1
0.9 0.8 -0.1
1 0.8 -0.1
1.1 0.8 -0.1
1.2 0.8 -0.1
1.3 0.8 -0.1
1.4 0.8 -0.1
1.5 0.8 -0.1
1.6 0.8 -0.1
1.7 0.8 -0.1
1.8 0.8 -0.1
1.9 0.8 -0.1
-0.1 0.9 -0.1
0 0.9 -0.1
0.1 0.9 -0.1
0.2 0.9 -0.1
0.3 0.9 -0.1
0.4 0.9 -0.1
0.5 0.9 -0.1
0.6 0.9 -0.1
0.7 0.9 -0.1
0.8 0.9 -0.1
0.9 0.9 -0.1
1 0.9 -0.1
1.1 0.9 -0.1
1.2 0.9 -0.1
1.3 0.9 -0.1
1.4 0.9 -0.1
1.5 0.9 -0.1
1.6 0.9 -0.1
1.7 0.9 -0.1
1.8 0.9 -0.1
1.9 0.9 -0.1
-0.1 1 -0.1
0 1 -0.1
0.1 1 -0.1
0.2 1 -0.1
0.3 1 -0.1
0.4 1 -0.1
0.5 1 -0.1
0.6 1 -0.1
0.7 1 -0.1
0.8 1 -0.1
0.9 1 -0.1
1 1 -0.1
1.1 1 -0.1
1.2 1 -0.1
1.3 1 -0.1
1.4 1 -0.1
1.5 1 -0.1
1.6 1 -0.1
1.7 1 -0.1
1.8 1 -0.1
1.9 1 -0.1
-0.1 1.1 -0.1
0 1.1 -0.1
0.1 1.1 -0.1
0.2 1.1 -0.1
0.3 1.1 -0.1
0.4 1.1 -0.1
0.5 1.1 -0.1
0.6 1.1 -0.1
0.7 1.1 -0.1
0.8 1.1 -0.1
0.9 1.1 -0.1
1 1.1 -0.1
1.1 1.1 -0.1
1.2 1.1 -0.1
1.3 1.1 -0.1
1.4 1.1 -0.1
1.5 1.1 -0.1
1.6 1.1 -0.1
1.7 1.1 -0.1
1.8 1.1 -0.1
1.9 1.1 -0.1
-0.1 1.2 -0.1
0 1.2 -0.1
0.1 1.2 -0.1
0.2 1.2 -0.1
0.3 1.2 -0.1
0.4 1.2 -0.1
0.5 1.2 -0.1
0.6 1.2 -0.1
0.7 1.2 -0.1
0.8 1.2 -0.1
0.9 1.2 -0.1
1 1.2 -0.1
1.1 1.2 -0.1
1.2 1.2 -0.1
1.3 1.2 -0.1
1.4 1.2 -0.1
1.5 1.2 -0.1
1.6 1.2 -0.1
1.7 1.2 -0.1
1.8 1.2 -0.1
1.9 1.2 -0.1
-0.1 1.3 -0.1
0 1.3 -0.1
0.1 1.3 -0.1
0.2 1.3 -0.1
0.3 1.3 -0.1
0.4 1.3 -0.1
0.5 1.3 -0.1
0.6 1.3 -0.1
0.7 1.3 -0.1
0.8 1.3 -0.1
0.9 1.3 -0.1
1 1.3 -0.1
1.1 1.3 -0.1
1.2 1.3 -0.1
1.3 1.3 -0.1
1.4 1.3 -0.1
1.5 1.3 -0.1
1.6 1.3 -0.1
1.7 1.3 -0.1
1.8 1.3 -0.1
1.9 1.3 -0.1
-0.1 1.4 -0.1
0 1.4 -0.1
0.1 1.4 -0.1
0.2 1.4 -0.1
0.3 1.4 -0.1
0.4 1.4 -0.1
0.5 1.4 -0.1
0.6 1.4 -0.1
0.7 1.4 -0.1
0.8 1.4 -0.1
0.9 1.4 -0.1
1 1.4 -0.1
1.1 1.4 -0.1
1.2 1.4 -0.1
1.3 1.4 -0.1
1.4 1.4 -0.1
1.5 1.4 -0.1
1.6 1.4 -0.1
1.7 1.4 -0.1
1.8 1.4 -0.1
1.9 1.4 -0.1
-0.1 1.5 -0.1
0 1.5 -0.1
0.1 1.5 -0.1
0.2 1.5 -0.1
0.3 1.5 -0.1
0.4 1.5 -0.1
0.5 1.5 -0.1
0.6 1.5 -0.1
0.7 1.5 -0.1
0.8 1.5 -0.1
0.9 1.5 -0.1
1 1.5 -0.1
1.1 1.5 -0.1
1.2 1.5 -0.1
1.3 1.5 -0.1
1.4 1.5 -0.1
1.5 1.5 -0.1
1.6 1.5 -0.1
1.7 1.5 -0.1
1.8 1.5 -0.1
1.9 1.5 -0.1
-0.1 1.6 -0.1
0 1.6 -0.1
0.1 1.6 -0.1
0.2 1.6 -0.1
0.3 1.6 -0.1
0.4 1.6 -0.1
0.5 1.6 -0.1
0.6 1.6 -0.1
0.7 1.6 -0.1
0.8 1.6 -0.1
0.9 1.6 -0.1
1 1.6 -0.1
1.1 1.6 -0.1
1.2 1.6 -0.1
1.3 1.6 -0.1
1.4 1.6 -0.1
1.5 1.6 -0.1
1.6 1.6 -0.1
1.7 1.6 -0.1
1.8 1.6 -0.1
1.9 1.6 -0.1
-0.1 1.7 -0.1
0 1.7 -0.1
0.1 1.7 -0.1
0.2 1.7 -0.1
0.3 1.7 -0.1
0.4 1.7 -0.1
0.5 1.7 -0.1
0.6 1.7 -0.1
0.7 1.7 -0.1
0.8 1.7 -0.1
0.9 1.7 -0.1
1 1.7 -0.1
1.1 1.7 -0.1
1.2 1.7 -0.1
1.3 1.7 -0.1
1.4 1.7 -0.1
1.5 1.7 -0.1
1.6 1.7 -0.1
1.7 1.7 -0.1
1.8 1.7 -0.1
1.9 1.7 -0.1
-0.1 1.8 -0.1
0 1.8 -0.1
0.1 1.8 -0.1
0.2 1.8 -0.1
0.3 1.8 -0.1
0.4 1.8 -0.1
0.5 1.8 -0.1
0.6 1.8 -0.1
0.7 1.8 -0.1
0.8 1.8 -0.1
0.9 1.8 -0.1
1 1.8 -0.1
1.1 1.8 -0.1
1.2 1.8 -0.1
1.3 1.8 -0.1
1.4 1.8 -0.1
1.5 1.8 -0.1
1.6 1.8 -0.1
1.7 1.8 -0.1
1.8 1.8 -0.1
1.9 1.8 -0.1
-0.1 1.9 -0.1
0 1.9 -0.1
0.1 1.9 -0.1
0.2 1.9 -0.1
0.3 1.9 -0.1
0.4 1.9 -0.1
0.5 1.9 -0.1
0.6 1.9 -0.1
0.7 1.9 -0.1
0.8 1.9 -0.1
0.9 1.9 -0.1
1 1.9 -0.1
1.1 1.9 -0.1
1.2 1.9 -0.1
1.3 1.9 -0.1
1.4 1.9 -0.1
1.5 1.9 -0.1
1.6 1.9 -0.1
1.7 1.9 -0.1
1.8 1.9 -0.1
1.9 1.9 -0.1
-0.1 -0.1 0
0 -0.1 0
0.1 -0.1 0
0.2 -0.1 0
0.3 -0.1 0
0.4 -0.1 0
0.5 -0.1 0
0.6 -0.1 0
0.7 -0.1 0
0.8 -0.1 0
0.9 -0.1 0
1 -0.1 0
1.1 -0.1 0
1.2 -0.1 0
1.3 -0.1 0
1.4 -0.1 0
1.5 -0.1 0
1.6 -0.1 0
1.7 -0.1 0
1.8 -0.1 0
1.9 -0.1 0
-0.1 0 0
0 0 0
0.1 0 0
0.2 0 0
0.3 0 0
0.4 0 0
0.5 0 0
0.6 0 0
0.7 0 0
0.8 0 0
0.9 0 0
1 0 0
1.1 0 0
1.2 0 0
1.3 0 0
1.4 0 0
1.5 0 0
1.6 0 0
1.7 0 0
1.8 0 0
1.9 0 0
-0.1 0.1 0
0 0.1 0
0.1 0.1 0
0.2 0.1 0
0.3 0.1 0
0.4 0.1 0
0.5 0.1 0
0.6 0.1 0
0.7 0.1 0
0.8 0.1 0
0.9 0.1 0
1 0.1 0
1.1 0.1 0
1.2 0.1 0
1.3 0.1 0
1.4 0.1 0
1.5 0.1 0
1.6 0.1 0
1.7 0.1 0
1.8 0.1 0
1.9 0.1 0
-0.1 0.2 0
0 0.2 0
0.1 0.2 0
0.2 0.2 0
0.3 0.2 0
0.4 0.2 0
0.5 0.2 0
0.6 0.2 0
0.7 0.2 0
0.8 0.2 0
0.9 0.2 0
1 0.2 0
1.1 0.2 0
1.2 0.2 0
1.3 0.2 0
1.4 0.2 0
1.5 0.2 0
1.6 0.2 0
1.7 0.2 0
1.8 0.2 0
1.9 0.2 0
-0.1 0.3 0
0 0.3 0
0.1 0.3 0
0.2 0.3 0
0.3 0.3 0
0.4 0.3 0
0.5 0.3 0
0.6 0.3 0
0.7 0.3 0
0.8 0.3 0
0.9 0.3 0
1 0.3 0
1.1 0.3 0
1.2 0.3 0
1.3 0.3 0
1.4 0.3 0
1.5 0.3 0
1.6 0.3 0
1.7 0.3 0
1.8 0.3 0
1.9 0.3 0
-0.1 0.4 0
0 0.4 0
0.1 0.4 0
0.2 0.4 0
0.3 0.4 0
0.4 0.4 0
0.5 0.4 0
0.6 0.4 0
0.7 0.4 0
0.8 0.4 0
0.9 0.4 0
1 0.4 0
1.1 0.4 0
1.2 0.4 0
1.3 0.4 0
1.4 0.4 0
1.5 0.4 0
1.6 0.4 0
1.7 0.4 0
1.8 0.4 0
1.9 0.4 0
-0.1 0.5 0
0 0.5 0
0.1 0.5 0
0.2 0.5 0
0.3 0.5 0
0.4 0.5 0
0.5 0.5 0
0.6 0.5 0
0.7 0.5 0
0.8 0.5 0
0.9 0.5 0
1 0.5 0
1.1 0.5 0
1.2 0.5 0
1.3 0.5 0
1.4 0.5 0
1.5 0.5 0
1.6 0.5 0
1.7 0.5 0
1.8 0.5 0
1.9 0.5 0
-0.1 0.6 0
0 0.6 0
0.1 0.6 0
0.2 0.6 0
0.3 0.6 0
0.4 0.6 0
0.5 0.6 0
0.6 0.6 0
0.7 0.6 0
0.8 0.6 0
0.9 0.6 0
1 0.6 0
1.1 0.6 0
1.2 0.6 0
1.3 0.6 0
1.4 0.6 0
1.5 0.6 0
1.6 0.6 0
1.7 0.6 0
1.8 0.6 0
1.9 0.6 0
-0.1 0.7 0
0 0.7 0
0.1 0.7 0
0.2 0.7 0
0.3 0.7 0
0.4 0.7 0
0.5 0.7 0
0.6 0.7 0
0.7 0.7 0
0.8 0.7 0
0.9 0.7 0
1 0.7 0
1.1 0.7 0
1.2 0.7 0
1.3 0.7 0
1.4 0.7 0
1.5 0.7 0
1.6 0.7 0
1.7 0.7 0
1.8 0.7 0
1.9 0.7 0
-0.1 0.8 0
0 0.8 0
0.1 0.8 0
0.2 0.8 0
0.3 0.8 0
0.4 0.8 0
0.5 0.8 0
0.6 0.8 0
0.7 0.8 0
0.8 0.8 0
0.9 0.8 0
1 0.8 0
1.1 0.8 0
1.2 0.8 0
1.3 0.8 0
1.4 0.8 0
1.5 0.8 0
1.6 0.8 0
1.7 0.8 0
1.8 0.8 0
1.9 0.8 0
-0.1 0.9 0
0 0.9 0
0.1 0.9 0
0.2 0.9 0
0.3 0.9 0
0.4 0.9 0
0.5 0.9 0
0.6 0.9 0
0.7 0.9 0
0.8 0.9 0
0.9 0.9 0
1 0.9 0
1.1 0.9 0
1.2 0.9 0
1.3 0.9 0
1.4 0.9 0
1.5 0.9 0
1.6 0.9 0
1.7 0.9 0
1.8 0.9 0
1.9 0.9 0
-0.1 1 0
0 1 0
0.1 1 0
0.2 1 0
0.3 1 0
0.4 1 0
0.5 1 0
0.6 1 0
0.7 1 0
0.8 1 0
0.9 1 0
1 1 0
1.1 1 0
1.2 1 0
1.3 1 0
1.4 1 0
1.5 1 0
1.6 1 0
1.7 1 0
1.8 1 0
1.9 1 0
-0.1 1.1 0
0 1.1 0
0.1 1.1 0
0.2 1.1 0
0.3 1.1 0
0.4 1.1 0
0.5 1.1 0
0.6 1.1 0
0.7 1.1 0
0.8 1.1 0
0.9 1.1 0
1 1.1 0
1.1 1.1 0
1.2 1.1 0
1.3 1.1 0
1.4 1.1 0
1.5 1.1 0
1.6 1.1 0
1.7 1.1 0
1.8 1.1 0
1.9 1.1 0
-0.1 1.2 0
0 1.2 0
0.1 1.2 0
0.2 1.2 0
0.3 1.2 0
0.4 1.2 0
0.5 1.2 0
0.6 1.2 0
0.7 1.2 0
0.8 1.2 0
0.9 1.2 0
1 1.2 0
1.1 1.2 0
1.2 1.2 0
1.3 1.2 0
1.4 1.2 0
1.5 1.2 0
1.6 1.2 0
1.7 1.2 0
1.8 1.2 0
1.9 1.2 0
-0.1 1.3 0
0 1.3 0
0.1 1.3 0
0.2 1.3 0
0.3 1.3 0
0.4 1.3 0
0.5 1.3 0
0.6 1.3 0
0.7 1.3 0
0.8 1.3 0
0.9 1.3 0
1 1.3 0
1.1 1.3 0
1.2 1.3 0
1.3 1.3 0
1.4 1.3 0
1.5 1.3 0
1.6 1.3 0
1.7 1.3 0
1.8 1.3 0
1.9 1.3 0
-0.1 1.4 0
0 1.4 0
0.1 1.4 0
0.2 1.4 0
0.3 1.4 0
0.4 1.4 0
0.5 1.4 0
0.6 1.4 0
0.7 1.4 0
0.8 1.4 0
0.9 1.4 0
1 1.4 0
1.1 1.4 0
1.2 1.4 0
1.3 1.4 0
1.4 1.4 0
1.5 1.4 0
1.6 1.4 0
1.7 1.4 0
1.8 1.4 0
1.9 1.4 0
-0.1 1.5 0
0 1.5 0
0.1 1.5 0
0.2 1.5 0
0.3 1.5 0
0.4 1.5 0
0.5 1.5 0
0.6 1.5 0
0.7 1.5 0
0.8 1.5 0
0.9 1.5 0
1 1.5 0
1.1 1.5 0
1.2 1.5 0
1.3 1.5 0
1.4 1.5 0
1.5 1.5 0
1.6 1.5 0
1.7 1.5 0
1.8 1.5 0
1.9 1.5 0
-0.1 1.6 0
0 1.6 0
0.1 1.6 0
0.2 1.6 0
0.3 1.6 0
0.4 1.6 0
0.5 1.6 0
0.6 1.6 0
0.7 1.6 0
0.8 1.6 0
0.9 1.6 0
1 1.6 0
1.1 1.6 0
1.2 1.6 0
1.3 1.6 0
1.4 1.6 0
1.5 1.6 0
1.6 1.6 0
1.7 1.6 0
1.8 1.6 0
1.9 1.6 0
-0.1 1.7 0
0 1.7 0
0.1 1.7 0
0.2 1.7 0
0.3 1.7 0
0.4 1.7 0
0.5 1.7 0
0.6 1.7 0
0.7 1.7 0
0.8 1.7 0
0.9 1.7 0
1 1.7 0
1.1 1.7 0
1.2 1.7 0
1.3 1.7 0
1.4 1.7 0
1.5 1.7 0
1.6 1.7 0
1.7 1.7 0
1.8 1.7 0
1.9 1.7 0
-0.1 1.8 0
0 1.8 0
0.1 1.8 0
0.2 1.8 0
0.3 1.8 0
0.4 1.8 0
0.5 1.8 0
0.6 1.8 0
0.7 1.8 0
0.8 1.8 0
0.9 1.8 0
1 1.8 0
1.1 1.8 0
1.2 1.8 0
1.3 1.8 0
1.4 1.8 0
1.5 1.8 0
1.6 1.8 0
1.7 1.8 0
1.8 1.8 0
1.9 1.8 0
-0.1 1.9 0
0 1.9 0
0.1 1.9 0
0.2 1.9 0
0.3 1.9 0
0.4 1.9 0
0.5 1.9 0
0.6 1.9 0
0.7 1.9 0
0.8 1.9 0
0.9 1.9 0
1 1.9 0
1.1 1.9 0
1.2 1.9 0
1.3 1.9 0
1.4 1.9 0
1.5 1.9 0
1.6 1.9 0
1.7 1.9 0
1.8 1.9 0
[...]
CELL_DATA 4000
VECTORS velocity double 
-2.8165e-05 0.000249533 -0.000221368
-3.10703e-05 0.000297921 -0.000252788
-2.78268e-05 0.000303139 -0.000261766
-1.70522e-05 0.000303732 -0.000267526
9.89833e-07 0.000303912 -0.000271265
2.45277e-05 0.000304449 -0.000273717
5.12821e-05 0.000305528 -0.000275297
7.88659e-05 0.000307105 -0.00027616
0.000104941 0.000309154 -0.000276324
0.000127217 0.000311581 -0.000275651
0.000143375 0.000314229 -0.000274055
0.000151346 0.000316888 -0.000271508
0.000149415 0.000319241 -0.000268045
0.000136631 0.000320986 -0.0002638
0.000113058 0.000321644 -0.000259045
7.99115e-05 0.000320785 -0.000254207
3.9971e-05 0.000318083 -0.000249639
-2.40595e-06 0.000313129 -0.000245713
-4.13353e-05 0.000304193 -0.000241498
-2.06677e-05 0.000261219 -0.000211612
-1.71267e-05 0.000735297 -0.000287561
-2.16338e-05 0.000875076 -0.000340111
-2.18159e-05 0.000890304 -0.000354363
-1.29953e-05 0.000892106 -0.00036261
5.52282e-06 0.000892124 -0.000367684
3.21515e-05 0.000892707 -0.000370759
6.43472e-05 0.000894491 -0.000372531
9.93462e-05 0.000897571 -0.000373254
0.000134221 0.000901903 -0.000372974
0.000165927 0.000907326 -0.000371541
0.000191274 0.000913469 -0.000368898
0.000207187 0.000919861 -0.000364968
0.000210993 0.000925762 -0.000359797
0.000200651 0.000930238 -0.000353719
0.000175416 0.000932213 -0.000346983
0.000136067 0.000930544 -0.000340116
8.52228e-05 0.000924234 -0.000333712
2.77349e-05 0.000912152 -0.000328381
-2.75747e-05 0.000887795 -0.000322804
-1.37874e-05 0.000750294 -0.000280605
-5.08032e-06 0.00139264 -0.000363312
-6.51974e-06 0.00167801 -0.000432135
-7.82165e-06 0.00171033 -0.000450821
-8.37417e-07 0.00171471 -0.000461455
1.64791e-05 0.00171471 -0.000467788
4.29229e-05 0.00171501 -0.000471413
7.59848e-05 0.00171691 -0.000473318
0.000112816 0.00172082 -0.000473838
0.000150342 0.00172677 -0.000473041
0.00018519 0.00173453 -0.00047084
0.000213838 0.0017436 -0.000467106
0.0002327 0.00175325 -0.000461774
0.000238449 0.00176233 -0.00045491
0.000228422 0.00176918 -0.000446864
0.000201198 0.00177205 -0.000438006
0.000157061 0.00176913 -0.000428937
9.83354e-05 0.00175871 -0.000420446
2.99507e-05 0.00173834 -0.000413351
-3.67259e-05 0.00169264 -0.000406458
-1.83629e-05 0.00140849 -0.000354435
9.1545e-06 0.0022181 -0.000460601
1.30063e-05 0.00271097 -0.000547843
1.13025e-05 0.00276977 -0.000571131
1.62807e-05 0.0027788 -0.000584383
3.18488e-05 0.00277931 -0.000592165
5.73516e-05 0.00277912 -0.000596522
9.04588e-05 0.00278055 -0.00059864
0.000128276 0.00278441 -0.00059901
0.000167528 0.00279089 -0.000597784
0.000204597 0.00279974 -0.00059484
0.000235613 0.00281049 -0.00058997
0.000256477 0.00282214 -0.000583146
0.000263075 0.00283303 -0.000574467
0.00025211 0.00284109 -0.000564127
0.000221576 0.00284393 -0.0005527
0.000171207 0.00283879 -0.000540998
0.000102834 0.00282311 -0.000530096
2.19773e-05 0.00279303 -0.000520993
-5.56221e-05 0.0027187 -0.000512473
-2.7811e-05 0.00222957 -0.000447607
2.67572e-05 0.00322286 -0.000573387
3.84586e-05 0.00399284 -0.000680775
3.72003e-05 0.00408986 -0.000708597
3.99362e-05 0.00410629 -0.000724543
5.29621e-05 0.00410814 -0.000733917
7.65171e-05 0.00410742 -0.000739133
0.000108599 0.00410784 -0.000741577
0.000146316 0.00411071 -0.000741911
0.000186255 0.00411645 -0.000740347
0.000224667 0.00412498 -0.00073671
0.000257231 0.00413579 -0.000730791
0.000279238 0.00414766 -0.000722486
0.00028599 0.00415869 -0.000711874
0.000273476 0.00416638 -0.000699144
0.000238749 0.00416761 -0.000685072
0.000180926 0.00415893 -0.000670501
0.000101798 0.00413677 -0.00065681
7.57231e-06 0.00409491 -0.000645604
-8.05575e-05 0.00398237 -0.000635542
-4.02787e-05 0.003223 -0.000555813
4.84863e-05 0.00441816 -0.000695987
7.11618e-05 0.00554227 -0.000824073
7.15563e-05 0.00569151 -0.000855973
7.19242e-05 0.00571869 -0.000874531
8.15135e-05 0.00572294 -0.000885584
0.000101906 0.00572188 -0.000891722
0.000131559 0.00572088 -0.000894599
0.000167686 0.00572191 -0.000895033
0.000206883 0.00572573 -0.000893281
0.000245222 0.00573246 -0.000889108
0.000277964 0.00574157 -0.000882321
0.000299945 0.00575179 -0.000872685
0.000305855 0.00576113 -0.000860253
0.000290795 0.00576666 -0.000845167
0.000250987 0.00576455 -0.000828388
0.000184731 0.00575063 -0.000811009
9.36719e-05 0.0057204 -0.000794569
-1.47771e-05 0.00566429 -0.000781254
-0.000112707 0.00550208 -0.000769793
-5.63533e-05 0.00440002 -0.000674143
7.48013e-05 0.00580918 -0.0008228
0.00011207 0.00737079 -0.000970868
0.000115623 0.00758815 -0.00100601
0.000113604 0.00762983 -0.00102688
0.000118915 0.00763774 -0.00103953
0.000134857 0.0076367 -0.00104661
0.000160503 0.00763407 -0.00105003
0.000193357 0.00763263 -0.00105075
0.000230068 0.00763353 -0.00104903
0.000266542 0.0076371 -0.00104461
0.000297775 0.00764295 -0.00103729
0.000318278 0.00764989 -0.00102661
0.000322035 0.00765581 -0.0010127
0.000303179 0.00765741 -0.000995654
0.000257066 0.00765032 -0.000976301
0.000181224 0.0076296 -0.000956108
7.71273e-05 0.00758968 -0.000937024
-4.62559e-05 0.0075164 -0.000921887
-0.000153225 0.00729103 -0.000909468
-7.66124e-05 0.0057672 -0.000797354
0.000105759 0.00739244 -0.000948226
0.000161454 0.00947946 -0.00111434
0.000169827 0.00978213 -0.00115149
0.000165555 0.00984217 -0.00117409
0.000165876 0.00985501 -0.00118811
0.00017612 0.00985445 -0.0011961
0.00019623 0.00985018 -0.00120018
0.000224076 0.00984592 -0.00120138
0.000256451 0.00984327 -0.00119998
0.000289223 0.00984284 -0.00119572
0.000317243 0.0098444 -0.00118832
0.00033466 0.00984698 -0.00117709
0.000334782 0.00984827 -0.00116214
0.0003108 0.0098447 -0.00114367
0.000257103 0.0098315 -0.00112232
0.000170399 0.00980285 -0.00109976
5.20254e-05 0.00975186 -0.00107837
-8.70403e-05 0.00965827 -0.00106175
-0.00020227 0.00935419 -0.00104891
-0.000101135 0.00732395 -0.000920402
0.000140915 0.00915584 -0.00106735
0.000218554 0.0118581 -0.00124862
0.000233353 0.0122639 -0.00128611
0.000227074 0.0123458 -0.00130959
0.000221858 0.0123645 -0.00132456
0.000225371 0.0123648 -0.00133337
0.000238628 0.0123591 -0.00133816
0.000260014 0.0123521 -0.00133999
0.00028649 0.0123458 -0.00133926
0.000313976 0.0123412 -0.00133557
0.000337335 0.0123382 -0.0013286
0.000350254 0.0123361 -0.00131766
0.000345406 0.0123326 -0.00130246
0.000315167 0.0123238 -0.0012832
0.000252723 0.0123043 -0.00126066
0.000153911 0.0122676 -0.00123646
1.99949e-05 0.0122051 -0.00121336
-0.000135771 0.0120882 -0.0011957
-0.000258547 0.0116881 -0.00118313
-0.000129273 0.00906219 -0.00103929
0.000179032 0.0110813 -0.0011774
0.000281192 0.014488 -0.00137044
0.000303626 0.0150142 -0.00140629
0.000295559 0.0151205 -0.00142951
0.000284459 0.0151454 -0.00144485
0.000280623 0.0151467 -0.00145422
0.000286256 0.0151398 -0.00145966
0.000300234 0.0151305 -0.00146226
0.000319799 0.015121 -0.00146249
0.000341033 0.0151128 -0.0014599
0.000358864 0.015106 -0.00145384
0.000366619 0.0151 -0.00144398
0.000356204 0.0150928 -0.00142973
0.000319128 0.0150801 -0.00141091
0.000247339 0.0150561 -0.00138827
0.000135667 0.0150131 -0.00136346
-1.4968e-05 0.0149401 -0.0013396
-0.000188819 0.0147975 -0.00132185
-0.000319416 0.014283 -0.0013101
-0.000159708 0.0109693 -0.0011518
0.000217993 0.0131512 -0.00127995
0.000345454 0.017349 -0.00148183
0.000375721 0.0180112 -0.00151391
0.0003658 0.0181426 -0.00153549
0.000348701 0.0181725 -0.00155045
0.000337415 0.0181744 -0.00155995
0.000335329 0.0181666 -0.00156583
0.000341787 0.0181555 -0.00156924
0.000354449 0.0181439 -0.00157052
0.000369475 0.0181334 -0.00156958
0.000381885 0.0181245 -0.00156532
0.000384844 0.0181169 -0.00155731
0.0003696 0.0181086 -0.00154499
0.00032655 0.0180956 -0.00152796
0.000246231 0.0180714 -0.00150669
0.000121918 0.0180267 -0.00148266
-4.6221e-05 0.0179469 -0.00145929
-0.000239781 0.0177781 -0.00144249
-0.00037966 0.01713 -0.00143239
-0.00018983 0.0130342 -0.00125987
0.000254616 0.015361 -0.00138419
0.000405051 0.0204329 -0.00159401
0.000441497 0.0212433 -0.0016204
0.000428976 0.0213973 -0.00163888
0.000405952 0.0214294 -0.00165245
0.00038783 0.0214303 -0.00166145
0.000378884 0.0214214 -0.00166747
0.000378749 0.0214093 -0.00167174
0.000385621 0.0213968 -0.00167405
0.000395839 0.0213857 -0.00167467
0.000404496 0.021377 -0.00167279
0.000404718 0.0213709 -0.00166753
0.000387346 0.021366 -0.00165822
0.000341559 0.0213587 -0.00164433
0.000255946 0.0213417 -0.00162605
0.000121341 0.0213041 -0.00160458
-6.38329e-05 0.0212258 -0.00158325
-0.000278946 0.0210337 -0.00156847
-0.00043169 0.0202335 -0.0015606
-0.000215845 0.0152583 -0.00137285
0.000284164 0.0177389 -0.00151204
0.000450318 0.0237668 -0.00173355
0.000488306 0.0247318 -0.00175294
0.000471391 0.0249014 -0.00176684
0.000442699 0.0249299 -0.00177789
0.000419047 0.0249273 -0.00178573
0.000405134 0.0249164 -0.00179134
0.000400686 0.0249035 -0.00179613
0.000404099 0.0248913 -0.0017997
0.000412162 0.0248814 -0.00180198
0.000420472 0.0248754 -0.00180248
0.000422347 0.0248746 -0.00180043
0.000408323 0.0248787 -0.00179503
0.000366362 0.0248848 -0.0017856
0.000282619 0.0248859 -0.00177191
0.000143989 0.0248688 -0.00175489
-5.47757e-05 0.0248065 -0.00173753
-0.000292668 0.0246004 -0.00172612
-0.000464671 0.0236329 -0.00172047
-0.000232335 0.0176752 -0.00151178
0.000299506 0.0203807 -0.00170729
0.000466462 0.0274524 -0.00195313
0.000496839 0.0285691 -0.00196539
0.00047226 0.0287405 -0.00197328
0.000438395 0.0287565 -0.00198057
0.000411531 0.028746 -0.00198653
0.000395681 0.0287317 -0.00199119
0.000390477 0.0287179 -0.0019956
0.000394236 0.0287064 -0.00199985
0.000404383 0.0286988 -0.0020037
0.000417381 0.0286976 -0.00200654
0.00042725 0.0287051 -0.00200778
0.000424992 0.0287231 -0.00200671
0.000397632 0.0287508 -0.00200258
0.000328366 0.0287829 -0.00199485
0.000198513 0.0288049 -0.00198405
-4.31206e-06 0.0287815 -0.00197252
-0.000263303 0.0285814 -0.00196578
-0.000463476 0.0274389 -0.00196154
-0.000231738 0.0203815 -0.00171876
0.000288869 0.0235129 -0.00205483
0.000429597 0.0317359 -0.00235402
0.00043696 0.0329861 -0.00236073
0.000399856 0.0331366 -0.00236147
0.000361954 0.0331274 -0.00236374
0.000335861 0.0331032 -0.00236669
0.000322898 0.0330831 -0.00237
0.000321762 0.0330676 -0.00237381
0.000330805 0.0330564 -0.00237814
0.000348418 0.0330511 -0.00238274
0.000372303 0.0330548 -0.00238722
0.000398078 0.0330716 -0.00239124
0.000418297 0.033106 -0.00239416
0.000420502 0.0331612 -0.00239536
0.000385332 0.0332362 -0.00239432
0.000287069 0.0333186 -0.00239108
0.000101169 0.0333668 -0.00238704
-0.000169104 0.0332093 -0.00238615
-0.00040803 0.0319008 -0.00238114
-0.000204015 0.0235974 -0.00207562
0.000230174 0.0276216 -0.00272732
0.000297894 0.0371482 -0.00314029
0.00025871 0.038488 -0.00314544
0.000203598 0.0385824 -0.00313811
0.000164835 0.0385325 -0.00313457
0.000145927 0.0384892 -0.00313339
0.000143132 0.0384609 -0.00313416
0.000153081 0.038442 -0.00313653
0.000174077 0.0384298 -0.00314006
0.000205635 0.0384251 -0.00314444
0.000247129 0.0384316 -0.00314954
0.000297093 0.0384551 -0.00315521
0.000351502 0.0385034 -0.00316108
0.000400878 0.0385855 -0.00316679
0.00042636 0.0387084 -0.00317211
0.000396205 0.0388693 -0.00317674
0.000268079 0.0390279 -0.00318128
1.56486e-05 0.0389728 -0.00318731
-0.000268175 0.0375406 -0.00317763
-0.000134087 0.0277904 -0.00275046
7.58999e-05 0.0337516 -0.00410618
-9.41425e-06 0.0448175 -0.00475686
-0.000127297 0.0461569 -0.0047679
-0.000202601 0.0461479 -0.00475143
-0.000232714 0.0460425 -0.00474083
-0.000232212 0.045976 -0.00473504
-0.000212871 0.0459377 -0.00473267
-0.00018075 0.0459136 -0.00473268
-0.000137732 0.045898 -0.00473437
-8.33845e-05 0.045891 -0.00473746
-1.61711e-05 0.0458959 -0.00474193
6.61832e-05 0.0459196 -0.00474769
0.000165302 0.0459729 -0.00475474
0.000279097 0.0460705 -0.00476323
0.000396035 0.0462314 -0.00477321
0.000485688 0.0464718 -0.00478465
0.000488277 0.046772 -0.0047977
0.000325726 0.0469031 -0.00481112
1.29552e-05 0.0454559 -0.00479022
6.47759e-06 0.0339691 -0.00412156
-0.00028989 0.0441907 -0.0070388
-0.000662456 0.0571252 -0.0081625
-0.000890468 0.058299 -0.0081917
-0.00097121 0.0581387 -0.00816706
-0.000965128 0.0579739 -0.00814857
-0.0009168 0.0578859 -0.00813731
-0.000848837 0.0578377 -0.00813097
-0.000770446 0.0578071 -0.00812779
-0.000684019 0.0577861 -0.00812682
-0.000588536 0.0577735 -0.00812763
-0.000480468 0.0577719 -0.00813016
-0.000353695 0.0577878 -0.00813456
-0.000199701 0.0578321 -0.00814109
-8.66246e-06 0.0579232 -0.00815024
0.000226188 0.0580901 -0.00816243
0.000495073 0.0583738 -0.00817808
0.000743177 0.0588018 -0.00819728
0.000832493 0.0591935 -0.00821649
0.000587525 0.0579528 -0.00817617
0.000293763 0.0443805 -0.00703995
-0.0011712 0.0618702 -0.0112433
-0.00201052 0.0764706 -0.0128545
-0.0023094 0.0772292 -0.012905
-0.0023001 0.0769273 -0.0128776
-0.00216247 0.0767337 -0.0128527
-0.00198217 0.0766397 -0.0128361
-0.00179301 0.0765885 -0.0128256
-0.00160648 0.0765552 -0.0128191
-0.00142497 0.0765313 -0.0128153
-0.00124649 0.0765148 -0.0128137
-0.00106599 0.0765068 -0.0128141
-0.000874561 0.0765115 -0.0128168
-0.000657616 0.0765368 -0.0128223
-0.000392199 0.0765979 -0.0128314
-4.42255e-05 0.0767231 -0.012845
0.000427771 0.0769643 -0.0128636
0.00104332 0.077397 -0.0128859
0.00169126 0.077977 -0.0129043
0.00188189 0.0772545 -0.0128455
0.000940945 0.0619757 -0.0112431
-0.00307153 0.0309351 0.0429363
-0.00408291 0.0382353 0.0475026
-0.00395048 0.0386146 0.047552
-0.00347542 0.0384636 0.0475593
-0.00296403 0.0383669 0.0475831
-0.00250349 0.0383199 0.0476023
-0.00210823 0.0382943 0.0476152
-0.00177224 0.0382776 0.0476237
-0.0014849 0.0382657 0.0476292
-0.00123535 0.0382574 0.0476324
-0.00101268 0.0382534 0.0476331
-0.000804402 0.0382557 0.0476309
-0.000593992 0.0382684 0.0476246
-0.000354702 0.0382989 0.0476123
-3.83208e-05 0.0383615 0.0475915
0.000447357 0.0384821 0.0475601
0.00127482 0.0386985 0.0475218
0.00267719 0.0389885 0.0475019
0.00431973 0.0386273 0.0474468
0.00215986 0.0309878 0.0429151
-3.32011e-05 0.000247091 -0.000489607
-4.56641e-05 0.000296182 -0.000587394
-4.85411e-05 0.000299138 -0.000611899
-4.02613e-05 0.000298248 -0.000626509
-2.15456e-05 0.000297655 -0.000636441
5.46263e-06 0.000297979 -0.000643552
3.816e-05 0.00029922 -0.000648723
7.37916e-05 0.000301263 -0.000652277
0.000109673 0.000304045 -0.000654008
0.000142944 0.000307453 -0.000653579
0.000170582 0.00031127 -0.000650678
0.000189709 0.000315291 -0.000645049
0.000197695 0.000319157 -0.000636767
0.000192605 0.000322334 -0.000626105
0.000173547 0.000324349 -0.000613755
0.000141176 0.000324665 -0.000600606
9.79288e-05 0.000322713 -0.00058778
4.8296e-05 0.000317794 -0.000576185
-1.33325e-06 0.000307411 -0.000562879
-6.66627e-07 0.000255987 -0.000479551
-2.77827e-05 0.000746687 -0.000687505
-4.53466e-05 0.000901371 -0.000849855
-5.40745e-05 0.000913662 -0.000889837
-4.93627e-05 0.000912193 -0.000911441
-3.07748e-05 0.000910304 -0.000925148
-1.46549e-07 0.000910194 -0.000934314
3.98306e-05 0.000912164 -0.000940481
8.61258e-05 0.00091618 -0.000944197
0.000135463 0.000922142 -0.000945334
0.000184067 0.000929787 -0.000943459
0.00022787 0.000938744 -0.000938202
0.000262616 0.000948459 -0.000929218
0.000284045 0.000958027 -0.00091659
0.000288695 0.000966238 -0.000900759
0.000274214 0.000971746 -0.0008826
0.000240034 0.000973088 -0.000863289
0.000187757 0.000968738 -0.000844394
0.000121713 0.000956862 -0.000827001
4.9215e-05 0.000928093 -0.0008056
2.46075e-05 0.000763015 -0.00067452
-1.85781e-05 0.00145727 -0.000903901
-3.50725e-05 0.00179097 -0.00112123
-4.59559e-05 0.00182273 -0.00117527
-4.3388e-05 0.00182239 -0.00120351
-2.58221e-05 0.00181923 -0.0012206
5.15687e-06 0.00181812 -0.00123132
4.69712e-05 0.00182011 -0.00123794
9.65796e-05 0.00182536 -0.00124129
0.000150538 0.00183376 -0.00124138
0.00020486 0.00184503 -0.00123778
0.000255078 0.0018587 -0.00122996
0.000296304 0.00187383 -0.00121756
0.000323455 0.00188897 -0.00120062
0.000332123 0.00190222 -0.00117957
0.000318968 0.00191118 -0.00115549
0.000282433 0.0019133 -0.00112984
0.000223335 0.0019059 -0.00110444
0.000145189 0.00188519 -0.00108082
5.67766e-05 0.00182916 -0.00105185
2.83883e-05 0.00148021 -0.000880527
-6.07026e-06 0.00239 -0.00117939
-1.88251e-05 0.00299156 -0.00146127
-3.0822e-05 0.00305707 -0.00153089
-3.02349e-05 0.00306078 -0.00156666
-1.39673e-05 0.00305691 -0.00158768
1.69037e-05 0.00305448 -0.00160026
5.99132e-05 0.0030557 -0.00160746
0.000111967 0.00306108 -0.00161051
0.000169516 0.00307065 -0.00160956
0.000228408 0.00308419 -0.00160411
0.000283719 0.00310116 -0.00159351
0.000329939 0.00312036 -0.00157729
0.000361246 0.00313976 -0.00155544
0.000372122 0.0031568 -0.00152834
0.000358205 0.00316807 -0.00149728
0.000316911 0.00316984 -0.00146411
0.000248179 0.00315805 -0.00143109
0.000155314 0.00312606 -0.00140007
5.09533e-05 0.00303081 -0.00136227
2.54767e-05 0.00241345 -0.00114186
1.09085e-05 0.00356912 -0.00150081
5.19886e-06 0.00454384 -0.00185537
-6.62612e-06 0.0046619 -0.00194153
-7.99287e-06 0.00467383 -0.00198541
6.35363e-06 0.00467031 -0.00201079
3.61834e-05 0.00466649 -0.00202552
7.92919e-05 0.00466618 -0.00203347
0.000132611 0.00467047 -0.0020364
0.000192573 0.00467961 -0.00203452
0.000254896 0.00469361 -0.00202724
0.000314255 0.00471184 -0.0020139
0.000364463 0.00473293 -0.0019938
0.000398968 0.00475451 -0.00196669
0.00041111 0.0047734 -0.00193308
0.000395343 0.00478508 -0.00189447
0.000347894 0.0047846 -0.00185296
0.000267783 0.00476643 -0.00181144
0.000158375 0.00471966 -0.0017725
3.77187e-05 0.00456932 -0.00172526
1.88594e-05 0.00358399 -0.00144822
3.35868e-05 0.00501825 -0.00185427
3.92092e-05 0.00648797 -0.00228632
2.94029e-05 0.00668206 -0.00238905
2.63133e-05 0.00670769 -0.00244116
3.80924e-05 0.00670611 -0.00247111
6.56975e-05 0.00670113 -0.00248817
0.000107358 0.00669867 -0.0024971
0.000160175 0.0067006 -0.00250016
0.000220728 0.00670766 -0.00249765
0.000284561 0.00672002 -0.00248892
0.000346081 0.00673707 -0.00247309
0.000398582 0.00675752 -0.00244932
0.000434803 0.00677868 -0.00241707
0.000446785 0.00679673 -0.00237704
0.000427697 0.00680644 -0.00233066
0.00037255 0.00680145 -0.00228045
0.000279323 0.00677434 -0.00223002
0.000151698 0.00670822 -0.00218291
1.45867e-05 0.00648285 -0.00212609
7.29333e-06 0.00501485 -0.00178702
6.29474e-05 0.00675372 -0.00222522
8.50466e-05 0.00885565 -0.00273589
7.96706e-05 0.00915375 -0.00285414
7.53793e-05 0.00919971 -0.00291407
8.40341e-05 0.0092022 -0.00294847
0.000108137 0.00919654 -0.00296792
0.000146554 0.00919153 -0.00297813
0.000196803 0.00919009 -0.00298166
0.000255604 0.00919344 -0.002979
0.000318436 0.00920205 -0.00296947
0.000379688 0.00921552 -0.0029518
0.000432156 0.00923271 -0.0029251
0.000467833 0.00925079 -0.00288839
0.00047776 0.00926525 -0.00284237
0.000453534 0.00927013 -0.00278853
0.00038872 0.00925785 -0.00272979
0.000280279 0.0092189 -0.0026705
0.000132655 0.00912798 -0.00261521
-2.07209e-05 0.00880345 -0.00254895
-1.03604e-05 0.00672315 -0.00214496
9.94696e-05 0.00878065 -0.00259816
0.000143744 0.0116649 -0.00318473
0.000145603 0.0120989 -0.00331626
0.000140938 0.0121728 -0.00338286
0.000146057 0.0121817 -0.00342122
0.000165418 0.0121761 -0.00344301
0.000198834 0.0121684 -0.00345467
0.000244288 0.0121629 -0.00345915
0.000298792 0.0121614 -0.003457
0.000357919 0.0121647 -0.00344754
0.000416218 0.0121726 -0.00342905
0.000466059 0.0121842 -0.00340063
0.000498576 0.0121967 -0.00336099
0.000503936 0.0122052 -0.00331029
0.000472252 0.0122028 -0.00325005
0.000395559 0.0121806 -0.00318361
0.000269723 0.0121269 -0.00311602
0.000100216 0.0120049 -0.00305301
-6.90592e-05 0.0115526 -0.00297788
-3.45296e-05 0.00871635 -0.00250819
0.000142904 0.0110912 -0.00295809
0.000215024 0.0149169 -0.00361431
0.000227039 0.0155219 -0.00375555
0.000223012 0.0156316 -0.00382686
0.00022436 0.0156493 -0.00386823
0.000237968 0.0156446 -0.00389205
0.000264845 0.0156346 -0.00390522
0.000303509 0.0156249 -0.00391102
0.000351438 0.0156178 -0.00391008
0.000404382 0.0156148 -0.00390185
0.000456977 0.0156162 -0.00388415
0.00050158 0.0156208 -0.00385562
0.00052851 0.0156261 -0.00381495
0.000526851 0.0156268 -0.00376171