# vtk DataFile Version 2.0 
Visualization 
ASCII 
DATASET STRUCTURED_GRID 
DIMENSIONS 21 21 11
POINTS 4851 float
-0.1 -0.1 0.9
0 -0.1 0.9
0.1 -0.1 0.9
0.2 -0.1 0.9
0.3 -0.1 0.9
0.4 -0.1 0.9
0.5 -0.1 0.9
0.6 -0.1 0.9
0.7 -0.1 0.9
0.8 -0.1 0.9
0.9 -0.1 0.9
1 -0.1 0.9
1.1 -0.1 0.9
1.2 -0.1 0.9
1.3 -0.1 0.9
1.4 -0.1 0.9
1.5 -0.1 0.9
1.6 -0.1 0.9
1.7 -0.1 0.9
1.8 -0.1 0.9
1.9 -0.1 0.9
-0.1 0 0.9
0 0 0.9
0.1 0 0.9
0.2 0 0.9
0.3 0 0.9
0.4 0 0.9
0.5 0 0.9
0.6 0 0.9
0.7 0 0.9
0.8 0 0.9
0.9 0 0.9
1 0 0.9
1.1 0 0.9
1.2 0 0.9
1.3 0 0.9
1.4 0 0.9
1.5 0 0.9
1.6 0 0.9
1.7 0 0.9
1.8 0 0.9
1.9 0 0.9
-0.1 0.1 0.9
0 0.1 0.9
0.1 0.1 0.9
0.2 0.1 0.9
0.3 0.1 0.9
0.4 0.1 0.9
0.5 0.1 0.9
0.6 0.1 0.9
0.7 0.1 0.9
0.8 0.1 0.9
0.9 0.1 0.9
1 0.1 0.9
1.1 0.1 0.9
1.2 0.1 0.9
1.3 0.1 0.9
1.4 0.1 0.9
1.5 0.1 0.9
1.6 0.1 0.9
1.7 0.1 0.9
1.8 0.1 0.9
1.9 0.1 0.9
-0.1 0.2 0.9
0 0.2 0.9
0.1 0.2 0.9
0.2 0.2 0.9
0.3 0.2 0.9
0.4 0.2 0.9
0.5 0.2 0.9
0.6 0.2 0.9
0.7 0.2 0.9
0.8 0.2 0.9
0.9 0.2 0.9
1 0.2 0.9
1.1 0.2 0.9
1.2 0.2 0.9
1.3 0.2 0.9
1.4 0.2 0.9
1.5 0.2 0.9
1.6 0.2 0.9
1.7 0.2 0.9
1.8 0.2 0.9
1.9 0.2 0.9
-0.1 0.3 0.9
0 0.3 0.9
0.1 0.3 0.9
0.2 0.3 0.9
0.3 0.3 0.9
0.4 0.3 0.9
0.5 0.3 0.9
0.6 0.3 0.9
0.7 0.3 0.9
0.8 0.3 0.9
0.9 0.3 0.9
1 0.3 0.9
1.1 0.3 0.9
1.2 0.3 0.9
1.3 0.3 0.9
1.4 0.3 0.9
1.5 0.3 0.9
1.6 0.3 0.9
1.7 0.3 0.9
1.8 0.3 0.9
1.9 0.3 0.9
-0.1 0.4 0.9
0 0.4 0.9
0.1 0.4 0.9
0.2 0.4 0.9
0.3 0.4 0.9
0.4 0.4 0.9
0.5 0.4 0.9
0.6 0.4 0.9
0.7 0.4 0.9
0.8 0.4 0.9
0.9 0.4 0.9
1 0.4 0.9
1.1 0.4 0.9
1.2 0.4 0.9
1.3 0.4 0.9
1.4 0.4 0.9
1.5 0.4 0.9
1.6 0.4 0.9
1.7 0.4 0.9
1.8 0.4 0.9
1.9 0.4 0.9
-0.1 0.5 0.9
0 0.5 0.9
0.1 0.5 0.9
0.2 0.5 0.9
0.3 0.5 0.9
0.4 0.5 0.9
0.5 0.5 0.9
0.6 0.5 0.9
0.7 0.5 0.9
0.8 0.5 0.9
0.9 0.5 0.9
1 0.5 0.9
1.1 0.5 0.9
1.2 0.5 0.9
1.3 0.5 0.9
1.4 0.5 0.9
1.5 0.5 0.9
1.6 0.5 0.9
1.7 0.5 0.9
1.8 0.5 0.9
1.9 0.5 0.9
-0.1 0.6 0.9
0 0.6 0.9
0.1 0.6 0.9
0.2 0.6 0.9
0.3 0.6 0.9
0.4 0.6 0.9
0.5 0.6 0.9
0.6 0.6 0.9
0.7 0.6 0.9
0.8 0.6 0.9
0.9 0.6 0.9
1 0.6 0.9
1.1 0.6 0.9
1.2 0.6 0.9
1.3 0.6 0.9
1.4 0.6 0.9
1.5 0.6 0.9
1.6 0.6 0.9
1.7 0.6 0.9
1.8 0.6 0.9
1.9 0.6 0.9
-0.1 0.7 0.9
0 0.7 0.9
0.1 0.7 0.9
0.2 0.7 0.9
0.3 0.7 0.9
0.4 0.7 0.9
0.5 0.7 0.9
0.6 0.7 0.9
0.7 0.7 0.9
0.8 0.7 0.9
0.9 0.7 0.9
1 0.7 0.9
1.1 0.7 0.9
1.2 0.7 0.9
1.3 0.7 0.9
1.4 0.7 0.9
1.5 0.7 0.9
1.6 0.7 0.9
1.7 0.7 0.9
1.8 0.7 0.9
1.9 0.7 0.9
-0.1 0.8 0.9
0 0.8 0.9
0.1 0.8 0.9
0.2 0.8 0.9
0.3 0.8 0.9
0.4 0.8 0.9
0.5 0.8 0.9
0.6 0.8 0.9
0.7 0.8 0.9
0.8 0.8 0.9
0.9 0.8 0.9
1 0.8 0.9
1.1 0.8 0.9
1.2 0.8 0.9
1.3 0.8 0.9
1.4 0.8 0.9
1.5 0.8 0.9
1.6 0.8 0.9
1.7 0.8 0.9
1.8 0.8 0.9
1.9 0.8 0.9
-0.1 0.9 0.9
0 0.9 0.9
0.1 0.9 0.9
0.2 0.9 0.9
0.3 0.9 0.9
0.4 0.9 0.9
0.5 0.9 0.9
0.6 0.9 0.9
0.7 0.9 0.9
0.8 0.9 0.9
0.9 0.9 0.9
1 0.9 0.9
1.1 0.9 0.9
1.2 0.9 0.9
1.3 0.9 0.9
1.4 0.9 0.9
1.5 0.9 0.9
1.6 0.9 0.9
1.7 0.9 0.9
1.8 0.9 0.9
1.9 0.9 0.9
-0.1 1 0.9
0 1 0.9
0.1 1 0.9
0.2 1 0.9
0.3 1 0.9
0.4 1 0.9
0.5 1 0.9
0.6 1 0.9
0.7 1 0.9
0.8 1 0.9
0.9 1 0.9
1 1 0.9
1.1 1 0.9
1.2 1 0.9
1.3 1 0.9
1.4 1 0.9
1.5 1 0.9
1.6 1 0.9
1.7 1 0.9
1.8 1 0.9
1.9 1 0.9
-0.1 1.1 0.9
0 1.1 0.9
0.1 1.1 0.9
0.2 1.1 0.9
0.3 1.1 0.9
0.4 1.1 0.9
0.5 1.1 0.9
0.6 1.1 0.9
0.7 1.1 0.9
0.8 1.1 0.9
0.9 1.1 0.9
1 1.1 0.9
1.1 1.1 0.9
1.2 1.1 0.9
1.3 1.1 0.9
1.4 1.1 0.9
1.5 1.1 0.9
1.6 1.1 0.9
1.7 1.1 0.9
1.8 1.1 0.9
1.9 1.1 0.9
-0.1 1.2 0.9
0 1.2 0.9
0.1 1.2 0.9
0.2 1.2 0.9
0.3 1.2 0.9
0.4 1.2 0.9
0.5 1.2 0.9
0.6 1.2 0.9
0.7 1.2 0.9
0.8 1.2 0.9
0.9 1.2 0.9
1 1.2 0.9
1.1 1.2 0.9
1.2 1.2 0.9
1.3 1.2 0.9
1.4 1.2 0.9
1.5 1.2 0.9
1.6 1.2 0.9
1.7 1.2 0.9
1.8 1.2 0.9
1.9 1.2 0.9
-0.1 1.3 0.9
0 1.3 0.9
0.1 1.3 0.9
0.2 1.3 0.9
0.3 1.3 0.9
0.4 1.3 0.9
0.5 1.3 0.9
0.6 1.3 0.9
0.7 1.3 0.9
0.8 1.3 0.9
0.9 1.3 0.9
1 1.3 0.9
1.1 1.3 0.9
1.2 1.3 0.9
1.3 1.3 0.9
1.4 1.3 0.9
1.5 1.3 0.9
1.6 1.3 0.9
1.7 1.3 0.9
1.8 1.3 0.9
1.9 1.3 0.9
-0.1 1.4 0.9
0 1.4 0.9
0.1 1.4 0.9
0.2 1.4 0.9
0.3 1.4 0.9
0.4 1.4 0.9
0.5 1.4 0.9
0.6 1.4 0.9
0.7 1.4 0.9
0.8 1.4 0.9
0.9 1.4 0.9
1 1.4 0.9
1.1 1.4 0.9
1.2 1.4 0.9
1.3 1.4 0.9
1.4 1.4 0.9
1.5 1.4 0.9
1.6 1.4 0.9
1.7 1.4 0.9
1.8 1.4 0.9
1.9 1.4 0.9
-0.1 1.5 0.9
0 1.5 0.9
0.1 1.5 0.9
0.2 1.5 0.9
0.3 1.5 0.9
0.4 1.5 0.9
0.5 1.5 0.9
0.6 1.5 0.9
0.7 1.5 0.9
0.8 1.5 0.9
0.9 1.5 0.9
1 1.5 0.9
1.1 1.5 0.9
1.2 1.5 0.9
1.3 1.5 0.9
1.4 1.5 0.9
1.5 1.5 0.9
1.6 1.5 0.9
1.7 1.5 0.9
1.8 1.5 0.9
1.9 1.5 0.9
-0.1 1.6 0.9
0 1.6 0.9
0.1 1.6 0.9
0.2 1.6 0.9
0.3 1.6 0.9
0.4 1.6 0.9
0.5 1.6 0.9
0.6 1.6 0.9
0.7 1.6 0.9
0.8 1.6 0.9
0.9 1.6 0.9
1 1.6 0.9
1.1 1.6 0.9
1.2 1.6 0.9
1.3 1.6 0.9
1.4 1.6 0.9
1.5 1.6 0.9
1.6 1.6 0.9
1.7 1.6 0.9
1.8 1.6 0.9
1.9 1.6 0.9
-0.1 1.7 0.9
0 1.7 0.9
0.1 1.7 0.9
0.2 1.7 0.9
0.3 1.7 0.9
0.4 1.7 0.9
0.5 1.7 0.9
0.6 1.7 0.9
0.7 1.7 0.9
0.8 1.7 0.9
0.9 1.7 0.9
1 1.7 0.9
1.1 1.7 0.9
1.2 1.7 0.9
1.3 1.7 0.9
1.4 1.7 0.9
1.5 1.7 0.9
1.6 1.7 0.9
1.7 1.7 0.9
1.8 1.7 0.9
1.9 1.7 0.9
-0.1 1.8 0.9
0 1.8 0.9
0.1 1.8 0.9
0.2 1.8 0.9
0.3 1.8 0.9
0.4 1.8 0.9
0.5 1.8 0.9
0.6 1.8 0.9
0.7 1.8 0.9
0.8 1.8 0.9
0.9 1.8 0.9
1 1.8 0.9
1.1 1.8 0.9
1.2 1.8 0.9
1.3 1.8 0.9
1.4 1.8 0.9
1.5 1.8 0.9
1.6 1.8 0.9
1.7 1.8 0.9
1.8 1.8 0.9
1.9 1.8 0.9
-0.1 1.9 0.9
0 1.9 0.9
0.1 1.9 0.9
0.2 1.9 0.9
0.3 1.9 0.9
0.4 1.9 0.9
0.5 1.9 0.9
0.6 1.9 0.9
0.7 1.9 0.9
0.8 1.9 0.9
0.9 1.9 0.9
1 1.9 0.9
1.1 1.9 0.9
1.2 1.9 0.9
1.3 1.9 0.9
1.4 1.9 0.9
1.5 1.9 0.9
1.6 1.9 0.9
1.7 1.9 0.9
1.8 1.9 0.9
1.9 1.9 0.9
-0.1 -0.1 1
0 -0.1 1
0.1 -0.1 1
0.2 -0.1 1
0.3 -0.1 1
0.4 -0.1 1
0.5 -0.1 1
0.6 -0.1 1
0.7 -0.1 1
0.8 -0.1 1
0.9 -0.1 1
1 -0.1 1
1.1 -0.1 1
1.2 -0.1 1
1.3 -0.1 1
1.4 -0.1 1
1.5 -0.1 1
1.6 -0.1 1
1.7 -0.1 1
1.8 -0.1 1
1.9 -0.1 1
-0.1 0 1
0 0 1
0.1 0 1
0.2 0 1
0.3 0 1
0.4 0 1
0.5 0 1
0.6 0 1
0.7 0 1
0.8 0 1
0.9 0 1
1 0 1
1.1 0 1
1.2 0 1
1.3 0 1
1.4 0 1
1.5 0 1
1.6 0 1
1.7 0 1
1.8 0 1
1.9 0 1
-0.1 0.1 1
0 0.1 1
0.1 0.1 1
0.2 0.1 1
0.3 0.1 1
0.4 0.1 1
0.5 0.1 1
0.6 0.1 1
0.7 0.1 1
0.8 0.1 1
0.9 0.1 1
1 0.1 1
1.1 0.1 1
1.2 0.1 1
1.3 0.1 1
1.4 0.1 1
1.5 0.1 1
1.6 0.1 1
1.7 0.1 1
1.8 0.1 1
1.9 0.1 1
-0.1 0.2 1
0 0.2 1
0.1 0.2 1
0.2 0.2 1
0.3 0.2 1
0.4 0.2 1
0.5 0.2 1
0.6 0.2 1
0.7 0.2 1
0.8 0.2 1
0.9 0.2 1
1 0.2 1
1.1 0.2 1
1.2 0.2 1
1.3 0.2 1
1.4 0.2 1
1.5 0.2 1
1.6 0.2 1
1.7 0.2 1
1.8 0.2 1
1.9 0.2 1
-0.1 0.3 1
0 0.3 1
0.1 0.3 1
0.2 0.3 1
0.3 0.3 1
0.4 0.3 1
0.5 0.3 1
0.6 0.3 1
0.7 0.3 1
0.8 0.3 1
0.9 0.3 1
1 0.3 1
1.1 0.3 1
1.2 0.3 1
1.3 0.3 1
1.4 0.3 1
1.5 0.3 1
1.6 0.3 1
1.7 0.3 1
1.8 0.3 1
1.9 0.3 1
-0.1 0.4 1
0 0.4 1
0.1 0.4 1
0.2 0.4 1
0.3 0.4 1
0.4 0.4 1
0.5 0.4 1
0.6 0.4 1
0.7 0.4 1
0.8 0.4 1
0.9 0.4 1
1 0.4 1
1.1 0.4 1
1.2 0.4 1
1.3 0.4 1
1.4 0.4 1
1.5 0.4 1
1.6 0.4 1
1.7 0.4 1
1.8 0.4 1
1.9 0.4 1
-0.1 0.5 1
0 0.5 1
0.1 0.5 1
0.2 0.5 1
0.3 0.5 1
0.4 0.5 1
0.5 0.5 1
0.6 0.5 1
0.7 0.5 1
0.8 0.5 1
0.9 0.5 1
1 0.5 1
1.1 0.5 1
1.2 0.5 1
1.3 0.5 1
1.4 0.5 1
1.5 0.5 1
1.6 0.5 1
1.7 0.5 1
1.8 0.5 1
1.9 0.5 1
-0.1 0.6 1
0 0.6 1
0.1 0.6 1
0.2 0.6 1
0.3 0.6 1
0.4 0.6 1
0.5 0.6 1
0.6 0.6 1
0.7 0.6 1
0.8 0.6 1
0.9 0.6 1
1 0.6 1
1.1 0.6 1
1.2 0.6 1
1.3 0.6 1
1.4 0.6 1
1.5 0.6 1
1.6 0.6 1
1.7 0.6 1
1.8 0.6 1
1.9 0.6 1
-0.1 0.7 1
0 0.7 1
0.1 0.7 1
0.2 0.7 1
0.3 0.7 1
0.4 0.7 1
0.5 0.7 1
0.6 0.7 1
0.7 0.7 1
0.8 0.7 1
0.9 0.7 1
1 0.7 1
1.1 0.7 1
1.2 0.7 1
1.3 0.7 1
1.4 0.7 1
1.5 0.7 1
1.6 0.7 1
1.7 0.7 1
1.8 0.7 1
1.9 0.7 1
-0.1 0.8 1
0 0.8 1
0.1 0.8 1
0.2 0.8 1
0.3 0.8 1
0.4 0.8 1
0.5 0.8 1
0.6 0.8 1
0.7 0.8 1
0.8 0.8 1
0.9 0.8 1
1 0.8 1
1.1 0.8 1
1.2 0.8 1
1.3 0.8 1
1.4 0.8 1
1.5 0.8 1
1.6 0.8 1
1.7 0.8 1
1.8 0.8 1
1.9 0.8 1
-0.1 0.9 1
0 0.9 1
0.1 0.9 1
0.2 0.9 1
0.3 0.9 1
0.4 0.9 1
0.5 0.9 1
0.6 0.9 1
0.7 0.9 1
0.8 0.9 1
0.9 0.9 1
1 0.9 1
1.1 0.9 1
1.2 0.9 1
1.3 0.9 1
1.4 0.9 1
1.5 0.9 1
1.6 0.9 1
1.7 0.9 1
1.8 0.9 1
1.9 0.9 1
-0.1 1 1
0 1 1
0.1 1 1
0.2 1 1
0.3 1 1
0.4 1 1
0.5 1 1
0.6 1 1
0.7 1 1
0.8 1 1
0.9 1 1
1 1 1
1.1 1 1
1.2 1 1
1.3 1 1
1.4 1 1
1.5 1 1
1.6 1 1
1.7 1 1
1.8 1 1
1.9 1 1
-0.1 1.1 1
0 1.1 1
0.1 1.1 1
0.2 1.1 1
0.3 1.1 1
0.4 1.1 1
0.5 1.1 1
0.6 1.1 1
0.7 1.1 1
0.8 1.1 1
0.9 1.1 1
1 1.1 1
1.1 1.1 1
1.2 1.1 1
1.3 1.1 1
1.4 1.1 1
1.5 1.1 1
1.6 1.1 1
1.7 1.1 1
1.8 1.1 1
1.9 1.1 1
-0.1 1.2 1
0 1.2 1
0.1 1.2 1
0.2 1.2 1
0.3 1.2 1
0.4 1.2 1
0.5 1.2 1
0.6 1.2 1
0.7 1.2 1
0.8 1.2 1
0.9 1.2 1
1 1.2 1
1.1 1.2 1
1.2 1.2 1
1.3 1.2 1
1.4 1.2 1
1.5 1.2 1
1.6 1.2 1
1.7 1.2 1
1.8 1.2 1
1.9 1.2 1
-0.1 1.3 1
0 1.3 1
0.1 1.3 1
0.2 1.3 1
0.3 1.3 1
0.4 1.3 1
0.5 1.3 1
0.6 1.3 1
0.7 1.3 1
0.8 1.3 1
0.9 1.3 1
1 1.3 1
1.1 1.3 1
1.2 1.3 1
1.3 1.3 1
1.4 1.3 1
1.5 1.3 1
1.6 1.3 1
1.7 1.3 1
1.8 1.3 1
1.9 1.3 1
-0.1 1.4 1
0 1.4 1
0.1 1.4 1
0.2 1.4 1
0.3 1.4 1
0.4 1.4 1
0.5 1.4 1
0.6 1.4 1
0.7 1.4 1
0.8 1.4 1
0.9 1.4 1
1 1.4 1
1.1 1.4 1
1.2 1.4 1
1.3 1.4 1
1.4 1.4 1
1.5 1.4 1
1.6 1.4 1
1.7 1.4 1
1.8 1.4 1
1.9 1.4 1
-0.1 1.5 1
0 1.5 1
0.1 1.5 1
0.2 1.5 1
0.3 1.5 1
0.4 1.5 1
0.5 1.5 1
0.6 1.5 1
0.7 1.5 1
0.8 1.5 1
0.9 1.5 1
1 1.5 1
1.1 1.5 1
1.2 1.5 1
1.3 1.5 1
1.4 1.5 1
1.5 1.5 1
1.6 1.5 1
1.7 1.5 1
1.8 1.5 1
1.9 1.5 1
-0.1 1.6 1
0 1.6 1
0.1 1.6 1
0.2 1.6 1
0.3 1.6 1
0.4 1.6 1
0.5 1.6 1
0.6 1.6 1
0.7 1.6 1
0.8 1.6 1
0.9 1.6 1
1 1.6 1
1.1 1.6 1
1.2 1.6 1
1.3 1.6 1
1.4 1.6 1
1.5 1.6 1
1.6 1.6 1
1.7 1.6 1
1.8 1.6 1
1.9 1.6 1
-0.1 1.7 1
0 1.7 1
0.1 1.7 1
0.2 1.7 1
0.3 1.7 1
0.4 1.7 1
0.5 1.7 1
0.6 1.7 1
0.7 1.7 1
0.8 1.7 1
0.9 1.7 1
1 1.7 1
1.1 1.7 1
1.2 1.7 1
1.3 1.7 1
1.4 1.7 1
1.5 1.7 1
1.6 1.7 1
1.7 1.7 1
1.8 1.7 1
1.9 1.7 1
-0.1 1.8 1
0 1.8 1
0.1 1.8 1
0.2 1.8 1
0.3 1.8 1
0.4 1.8 1
0.5 1.8 1
0.6 1.8 1
0.7 1.8 1
0.8 1.8 1
0.9 1.8 1
1 1.8 1
1.1 1.8 1
1.2 1.8 1
1.3 1.8 1
1.4 1.8 1
1.5 1.8 1
1.6 1.8 1
1.7 1.8 1
1.8 1.8 1
1.9 1.8 1
-0.1 1.9 1
0 1.9 1
0.1 1.9 1
0.2 1.9 1
0.3 1.9 1
0.4 1.9 1
0.5 1.9 1
0.6 1.9 1
0.7 1.9 1
0.8 1.9 1
0.9 1.9 1
1 1.9 1
1.1 1.9 1
1.2 1.9 1
1.3 1.9 1
1.4 1.9 1
1.5 1.9 1
1.6 1.9 1
1.7 1.9 1
1.8 1.9 1
1.9 1.9 1
-0.1 -0.1 1.1
0 -0.1 1.1
0.1 -0.1 1.1
0.2 -0.1 1.1
0.3 -0.1 1.1
0.4 -0.1 1.1
0.5 -0.1 1.1
0.6 -0.1 1.1
0.7 -0.1 1.1
0.8 -0.1 1.1
0.9 -0.1 1.1
1 -0.1 1.1
1.1 -0.1 1.1
1.2 -0.1 1.1
1.3 -0.1 1.1
1.4 -0.1 1.1
1.5 -0.1 1.1
1.6 -0.1 1.1
1.7 -0.1 1.1
1.8 -0.1 1.1
1.9 -0.1 1.1
-0.1 0 1.1
0 0 1.1
0.1 0 1.1
0.2 0 1.1
0.3 0 1.1
0.4 0 1.1
0.5 0 1.1
0.6 0 1.1
0.7 0 1.1
0.8 0 1.1
0.9 0 1.1
1 0 1.1
1.1 0 1.1
1.2 0 1.1
1.3 0 1.1
1.4 0 1.1
1.5 0 1.1
[...]
CELL_DATA 4000
VECTORS velocity double 
-1.85507e-05 -0.00013359 -0.00204334
-3.7414e-05 -0.000171309 -0.00372435
-4.53654e-05 -0.000179775 -0.00401381
-4.54476e-05 -0.000182392 -0.00402493
-4.14991e-05 -0.000183361 -0.00401056
-3.58884e-05 -0.000183833 -0.00399885
-2.97551e-05 -0.000184138 -0.00399062
-2.35603e-05 -0.000184371 -0.00398537
-1.73936e-05 -0.000184548 -0.00398288
-1.11592e-05 -0.000184663 -0.00398307
-4.6811e-06 -0.00018469 -0.00398592
2.28458e-06 -0.000184599 -0.00399144
9.981e-06 -0.000184346 -0.0039996
1.86018e-05 -0.000183867 -0.00401042
2.82043e-05 -0.000183076 -0.00402397
3.84268e-05 -0.00018183 -0.00404037
4.79159e-05 -0.000179823 -0.00405819
5.29636e-05 -0.000176327 -0.00404767
4.4938e-05 -0.000168906 -0.00375255
2.2469e-05 -0.000136867 -0.00205577
-3.4686e-05 -0.00034917 -0.00401734
-6.26988e-05 -0.000445011 -0.00699941
-7.36769e-05 -0.000463457 -0.00748542
-7.36819e-05 -0.000469642 -0.00751016
-6.798e-05 -0.000472478 -0.00749406
-5.96322e-05 -0.000474093 -0.00748037
-5.01951e-05 -0.000475171 -0.00747062
-4.03963e-05 -0.000475954 -0.00746433
-3.0498e-05 -0.000476507 -0.0074613
-2.04865e-05 -0.000476832 -0.00746144
-1.02063e-05 -0.000476885 -0.00746473
6.23491e-07 -0.000476592 -0.00747119
1.23295e-05 -0.000475858 -0.00748078
2.52092e-05 -0.000474533 -0.00749347
3.94653e-05 -0.000472404 -0.00750926
5.49671e-05 -0.000469165 -0.0075281
7.07379e-05 -0.000464277 -0.0075475
8.32487e-05 -0.000456484 -0.00752227
7.95348e-05 -0.000439799 -0.00702894
3.97674e-05 -0.000352491 -0.00403005
-4.71951e-05 -0.000595035 -0.00491208
-8.07178e-05 -0.000763389 -0.00834407
-9.23924e-05 -0.000792829 -0.0088926
-9.10264e-05 -0.000802684 -0.00892344
-8.3231e-05 -0.000807612 -0.00890813
-7.26329e-05 -0.000810592 -0.00889466
-6.10169e-05 -0.00081261 -0.00888503
-4.91794e-05 -0.000814054 -0.00887885
-3.73902e-05 -0.00081505 -0.00887595
-2.56047e-05 -0.000815616 -0.00887628
-1.36078e-05 -0.000815698 -0.00887978
-1.0545e-06 -0.000815177 -0.00888648
1.24731e-05 -0.000813893 -0.00889629
2.73943e-05 -0.000811611 -0.00890911
4.40472e-05 -0.000807995 -0.00892483
6.25047e-05 -0.000802594 -0.00894322
8.2097e-05 -0.000794735 -0.0089612
9.94773e-05 -0.00078276 -0.00892879
9.9794e-05 -0.000755605 -0.00837228
4.9897e-05 -0.00059724 -0.004925
-5.80626e-05 -0.000849948 -0.00579472
-9.69768e-05 -0.00110246 -0.00963377
-0.000109606 -0.00114424 -0.0102417
-0.000107084 -0.0011577 -0.0102789
-9.73507e-05 -0.00116467 -0.0102645
-8.46437e-05 -0.00116902 -0.0102513
-7.10012e-05 -0.00117198 -0.0102418
-5.7293e-05 -0.00117409 -0.0102357
-4.37845e-05 -0.00117554 -0.010233
-3.03903e-05 -0.00117637 -0.0102335
-1.68152e-05 -0.00117651 -0.0102372
-2.63061e-06 -0.00117579 -0.0102442
1.26814e-05 -0.00117398 -0.0102542
2.96746e-05 -0.00117076 -0.0102672
4.88198e-05 -0.00116568 -0.0102828
7.03071e-05 -0.00115817 -0.0103006
9.35601e-05 -0.00114746 -0.010317
0.000115049 -0.00113142 -0.0102771
0.000117936 -0.00109231 -0.00966081
5.8968e-05 -0.000850868 -0.00580817
-6.91323e-05 -0.00110169 -0.00691075
-0.000113914 -0.00144673 -0.0112641
-0.000127845 -0.00150233 -0.0119467
-0.000124319 -0.00151937 -0.0119915
-0.000112663 -0.00152827 -0.0119778
-9.77852e-05 -0.00153389 -0.0119647
-8.20151e-05 -0.00153773 -0.0119552
-6.63181e-05 -0.00154048 -0.0119491
-5.09586e-05 -0.00154238 -0.0119465
-3.58103e-05 -0.0015435 -0.0119471
-2.04903e-05 -0.00154375 -0.0119511
-4.46302e-06 -0.00154291 -0.0119583
1.28961e-05 -0.00154068 -0.0119687
3.22699e-05 -0.00153662 -0.0119819
5.42732e-05 -0.00153019 -0.0119977
7.9188e-05 -0.00152069 -0.0120151
0.000106435 -0.00150723 -0.0120301
0.000132128 -0.00148711 -0.0119818
0.000137218 -0.00143439 -0.0112904
6.86092e-05 -0.00110144 -0.00692485
-8.12001e-05 -0.00133806 -0.00831026
-0.000132502 -0.00178013 -0.0133077
-0.000147982 -0.00185091 -0.0140829
-0.000143429 -0.00187149 -0.0141363
-0.000129694 -0.00188216 -0.0141231
-0.00011244 -0.0018889 -0.0141098
-9.43318e-05 -0.00189353 -0.0141002
-7.6457e-05 -0.00189685 -0.0140941
-5.90801e-05 -0.00189919 -0.0140914
-4.20181e-05 -0.00190064 -0.0140922
-2.47936e-05 -0.00190106 -0.0140965
-6.73665e-06 -0.00190023 -0.014104
1.29172e-05 -0.00189774 -0.0141148
3.4984e-05 -0.00189304 -0.0141284
6.02269e-05 -0.00188546 -0.0141445
8.90296e-05 -0.00187415 -0.0141619
0.000120775 -0.00185806 -0.0141758
0.000151116 -0.0018337 -0.014118
0.000158527 -0.00176582 -0.0133336
7.92637e-05 -0.00133678 -0.00832508
-9.45979e-05 -0.00154239 -0.0100333
-0.000153127 -0.00208131 -0.0158206
-0.000170311 -0.00216822 -0.0167083
-0.00016459 -0.00219221 -0.0167717
-0.00014852 -0.00220435 -0.0167588
-0.000128618 -0.00221197 -0.0167453
-0.000107927 -0.0022172 -0.0167354
-8.76726e-05 -0.00222099 -0.0167291
-6.81195e-05 -0.00222374 -0.0167265
-4.90098e-05 -0.00222553 -0.0167274
-2.97641e-05 -0.00222625 -0.0167318
-9.56538e-06 -0.00222559 -0.0167398
1.25412e-05 -0.00222309 -0.0167511
3.7553e-05 -0.00221806 -0.0167653
6.64009e-05 -0.00220965 -0.0167818
9.95951e-05 -0.00219682 -0.0167994
0.000136471 -0.00217831 -0.0168125
0.000172115 -0.00214962 -0.0167438
0.000182221 -0.00206528 -0.0158464
9.11107e-05 -0.00154016 -0.0100489
-0.000109425 -0.00169047 -0.0121286
-0.00017582 -0.00231993 -0.0188703
-0.000194742 -0.00242321 -0.0198934
-0.000187601 -0.00245021 -0.0199686
-0.000168865 -0.00246335 -0.0199559
-0.000146019 -0.00247143 -0.0199419
-0.000122513 -0.00247694 -0.0199317
-9.97158e-05 -0.00248099 -0.0199252
-7.78877e-05 -0.00248404 -0.0199225
-5.66844e-05 -0.00248618 -0.0199235
-3.54003e-05 -0.00248731 -0.0199283
-1.30535e-05 -0.00248707 -0.0199367
1.15387e-05 -0.00248491 -0.0199485
3.96243e-05 -0.00248002 -0.0199634
7.2359e-05 -0.00247133 -0.0199804
0.000110427 -0.00245755 -0.0199984
0.000153129 -0.00243706 -0.0200108
0.000194905 -0.00240418 -0.0199294
0.000208294 -0.00230269 -0.018896
0.000104147 -0.00168732 -0.0121448
-0.0001255 -0.00174814 -0.0146491
-0.000200165 -0.00245355 -0.0225307
-0.000220669 -0.00257228 -0.0237147
-0.000211749 -0.0026014 -0.0238038
-0.000189987 -0.00261467 -0.0237913
-0.000163917 -0.00262254 -0.0237769
-0.000137426 -0.00262783 -0.0237663
-0.000112012 -0.00263179 -0.0237596
-8.79274e-05 -0.00263492 -0.0237568
-6.47413e-05 -0.00263737 -0.0237579
-4.15929e-05 -0.002639 -0.023763
-1.72942e-05 -0.00263947 -0.0237719
9.60105e-06 -0.00263816 -0.0237843
4.06646e-05 -0.00263412 -0.0237998
7.73706e-05 -0.00262604 -0.0238175
0.000120663 -0.0026123 -0.0238359
0.000169864 -0.00259081 -0.0238475
0.000218693 -0.00255435 -0.0237513
0.000236193 -0.00243593 -0.022556
0.000118097 -0.00174396 -0.0146658
-0.000142221 -0.00166945 -0.017645
-0.000225044 -0.00242513 -0.0268723
-0.000246674 -0.00255666 -0.0282458
-0.000235511 -0.00258617 -0.0283511
-0.000210395 -0.00259814 -0.028339
-0.000180934 -0.00260471 -0.0283241
-0.000151445 -0.002609 -0.0283131
-0.000123528 -0.0026123 -0.0283061
-9.74151e-05 -0.00261517 -0.0283032
-7.25847e-05 -0.00261776 -0.0283044
-4.80117e-05 -0.00261998 -0.0283098
-2.22768e-05 -0.0026215 -0.0283192
6.37629e-06 -0.00262168 -0.0283323
3.99197e-05 -0.0026195 -0.0283486
8.02811e-05 -0.00261342 -0.028367
0.000128816 -0.00260139 -0.0283858
0.000185005 -0.00258065 -0.0283965
0.000241834 -0.00254216 -0.0282826
0.000264552 -0.00240846 -0.0268968
0.000132276 -0.00166396 -0.017662
-0.000158357 -0.00139656 -0.0211547
-0.000248278 -0.0021624 -0.0319505
-0.000270113 -0.00230153 -0.0335444
-0.000256147 -0.00232844 -0.0336686
-0.000227489 -0.00233685 -0.0336568
-0.000194731 -0.0023405 -0.0336413
-0.00016253 -0.00234262 -0.0336297
-0.000132552 -0.00234446 -0.0336224
-0.000104981 -0.00234651 -0.0336194
-7.91983e-05 -0.00234895 -0.0336207
-5.40272e-05 -0.00235175 -0.0336264
-2.78253e-05 -0.00235466 -0.0336363
1.49769e-06 -0.00235713 -0.0336502
3.63956e-05 -0.00235816 -0.0336673
7.9412e-05 -0.00235606 -0.0336866
0.00013256 -0.00234835 -0.0337059
0.000195725 -0.0023314 -0.0337155
0.000261331 -0.0022939 -0.0335811
0.000290669 -0.00214884 -0.0319735
0.000145335 -0.00138932 -0.0211717
-0.00017166 -0.000863296 -0.0251926
-0.000266031 -0.00158153 -0.0377898
-0.000286495 -0.00171939 -0.0396363
-0.000269156 -0.00173889 -0.039782
-0.000237127 -0.00174041 -0.0397702
-0.000201684 -0.00173885 -0.0397537
-0.000167602 -0.00173725 -0.0397415
-0.000136512 -0.00173653 -0.0397337
-0.000108535 -0.001737 -0.0397304
-8.29742e-05 -0.0017388 -0.0397318
-5.85574e-05 -0.00174202 -0.0397378
-3.34651e-05 -0.00174659 -0.0397483
-5.30383e-06 -0.00175221 -0.039763
2.89039e-05 -0.00175808 -0.0397812
7.249e-05 -0.00176261 -0.0398016
0.000128459 -0.00176302 -0.0398219
0.000197579 -0.0017547 -0.0398304
0.000272128 -0.00172356 -0.0396727
0.000309813 -0.00157435 -0.0378108
0.000154907 -0.000853596 -0.0252094
-0.00017852 -4.45376e-06 -0.0297336
-0.000272096 -0.000597352 -0.0443618
-0.000288682 -0.000720063 -0.0464927
-0.000267593 -0.000724908 -0.0466617
-0.00023308 -0.000714987 -0.0466494
-0.00019645 -0.000705338 -0.0466313
-0.000162201 -0.000698085 -0.0466178
-0.000131744 -0.000693446 -0.0466092
-0.000105106 -0.000691353 -0.0466055
-8.15797e-05 -0.000691846 -0.0466068
-5.99073e-05 -0.000695119 -0.0466131
-3.82335e-05 -0.000701425 -0.0466243
-1.39861e-05 -0.000710926 -0.0466402
1.62669e-05 -0.000723388 -0.0466599
5.67427e-05 -0.000737713 -0.0466821
0.00011183 -0.000751276 -0.0467041
0.000183956 -0.000758695 -0.0467124
0.000266334 -0.00074267 -0.046529
0.000314478 -0.000601411 -0.0443805
0.000157239 8.57214e-06 -0.02975
-0.000173072 0.0012237 -0.0347011
-0.000256653 0.000853698 -0.0515682
-0.000265777 0.00076676 -0.054012
-0.000241255 0.000786749 -0.0542054
-0.000206529 0.000813802 -0.054191
-0.000171679 0.000834768 -0.0541701
-0.000140304 0.000849679 -0.0541545
-0.000113358 0.000859641 -0.0541446
-9.07441e-05 0.000865363 -0.0541401
-7.18574e-05 0.000867019 -0.0541411
-5.5637e-05 0.000864294 -0.0541476
-4.04549e-05 0.000856516 -0.0541597
-2.38619e-05 0.000842811 -0.054177
-2.25516e-06 0.000822397 -0.0541989
2.93345e-05 0.000795135 -0.0542241
7.69717e-05 0.000762538 -0.0542496
0.00014582 0.000729866 -0.0542595
0.0002322 0.000717472 -0.0540495
0.000292902 0.000831472 -0.0515851
0.000146451 0.00124106 -0.0347173
-0.000145777 0.00280757 -0.0399603
-0.000204263 0.00277388 -0.0592284
-0.000201447 0.00275207 -0.0620072
-0.000175541 0.00280984 -0.0622243
-0.000145369 0.00286 -0.0622056
-0.000117646 0.00289511 -0.0621801
-9.41734e-05 0.00291923 -0.0621613
-7.51913e-05 0.00293558 -0.0621491
-6.05106e-05 0.00294583 -0.0621433
-4.97933e-05 0.00295047 -0.0621436
-4.24614e-05 0.0029491 -0.0621502
-3.74974e-05 0.0029406 -0.0621632
-3.31017e-05 0.00292317 -0.0621824
-2.61537e-05 0.00289454 -0.0622077
-1.15669e-05 0.00285238 -0.0622376
1.81879e-05 0.00279547 -0.0622692
7.20573e-05 0.0027267 -0.062284
0.000153006 0.00266733 -0.0620484
0.000227061 0.0027242 -0.0592456
0.00011353 0.00283017 -0.039977
-7.93164e-05 0.0046188 -0.0452625
-8.9501e-05 0.00504454 -0.0670012
-7.08932e-05 0.00512756 -0.0701254
-4.96056e-05 0.00523674 -0.0703638
-3.30739e-05 0.00531407 -0.0703379
-2.15282e-05 0.00536428 -0.0703057
-1.39063e-05 0.00539779 -0.0702822
-9.55687e-06 0.00542065 -0.0702668
-8.35724e-06 0.00543569 -0.0702588
-1.0482e-05 0.00544382 -0.0702581
-1.61865e-05 0.00544464 -0.0702645
-2.55537e-05 0.00543661 -0.0702783
-3.81661e-05 0.00541704 -0.0703
-5.24735e-05 0.00538191 -0.0703296
-6.47558e-05 0.00532587 -0.0703665
-6.75387e-05 0.00524289 -0.0704077
-4.83887e-05 0.00512944 -0.0704322
6.63042e-06 0.00500125 -0.0701751
8.82038e-05 0.00495634 -0.0670232
4.41019e-05 0.0046468 -0.045281
6.31733e-05 0.00633153 -0.0492566
0.000133568 0.007342 -0.0729444
0.000166119 0.0075755 -0.0763657
0.00016819 0.00774348 -0.0766204
0.000154509 0.00784584 -0.0765846
0.000135003 0.007908 -0.076544
0.000114374 0.00794841 -0.0765144
9.40323e-05 0.00797608 -0.0764948
7.37097e-05 0.0079949 -0.076484
5.23569e-05 0.00800615 -0.0764815
2.85244e-05 0.00800953 -0.0764874
5.48119e-07 0.00800334 -0.076502
-3.33247e-05 0.00798431 -0.0765262
-7.45064e-05 0.007947 -0.0765609
-0.000123064 0.00788301 -0.0766063
-0.00017543 0.00778028 -0.0766605
-0.000220181 0.00762406 -0.0767003
-0.000232441 0.00741222 -0.076431
-0.00017445 0.00720824 -0.0729802
-8.72248e-05 0.00636247 -0.0492784
0.000355874 0.00734276 -0.041424
0.000539193 0.00899857 -0.0608895
0.000565791 0.00939817 -0.0638429
0.000518443 0.00960958 -0.0640684
0.000446991 0.00972307 -0.0640228
0.000373749 0.00978787 -0.0639746
0.000306636 0.00982897 -0.0639396
0.000247073 0.00985707 -0.0639161
0.000193838 0.00987656 -0.0639025
0.000144599 0.00988892 -0.0638982
9.64098e-05 0.00989401 -0.0639031
4.57032e-05 0.00989034 -0.0639179
-1.19451e-05 0.00987475 -0.0639437
-8.2026e-05 0.00984152 -0.0639823
-0.00017103 0.0097809 -0.0640349
-0.000285249 0.00967652 -0.0641008
-0.000426371 0.00950218 -0.0641578
-0.000576739 0.00922731 -0.0639267
-0.000644088 0.00883708 -0.0609469
-0.000322044 0.00736714 -0.0414508
0.00083903 0.0067011 0.0348932
0.00112439 0.00870551 0.0553361
0.00109103 0.00916493 0.0581812
0.000950451 0.00935979 0.0584457
0.000791807 0.00945547 0.0585143
0.000645534 0.00950763 0.0585633
0.000519095 0.00953977 0.0585983
0.000411765 0.00956136 0.0586216
0.000320195 0.00957626 0.0586351
0.0002402 0.00958583 0.0586396
0.000167137 0.00959013 0.0586349
9.56108e-05 0.00958822 0.0586205
1.88161e-05 0.00957781 0.0585949
-7.24779e-05 0.00955456 0.0585565
-0.000191547 0.00951054 0.0585038
-0.000358127 0.00943127 0.0584373
-0.000601584 0.00929049 0.058359
-0.000955143 0.00904412 0.0581048
-0.00132489 0.00858451 0.0552878
-0.000662447 0.00670375 0.0348414
0.00106895 0.00335055 0.382145
0.00131812 0.00435276 0.51187
0.00117042 0.00458246 0.529855
0.000943423 0.00467989 0.531754
0.000735984 0.00472774 0.531938
0.000567975 0.00475382 0.531985
0.000436482 0.00476988 0.532011
0.000333567 0.00478068 0.532027
0.000251404 0.00478813 0.532035
0.000183306 0.00479291 0.532036
0.000123428 0.00479507 0.532029
6.6012e-05 0.00479411 0.532015
4.38698e-06 0.00478891 0.531992
-7.04471e-05 0.00477728 0.531958
-0.000172307 0.00475527 0.531913
-0.000324794 0.00471563 0.531855
-0.000574147 0.00464525 0.531683
-0.00100889 0.00452206 0.529843
-0.00155996 0.00429226 0.511929
-0.000779979 0.00335187 0.382007
-8.85e-06 -0.000172828 -0.00179158
-1.94458e-05 -0.000218235 -0.0034197
-2.45015e-05 -0.000226395 -0.00370792
-2.48152e-05 -0.000228862 -0.0037184
-2.26121e-05 -0.000229829 -0.00370274
-1.94626e-05 -0.000230312 -0.00368983
-1.61641e-05 -0.000230621 -0.00368066
-1.30147e-05 -0.000230854 -0.00367474
-1.00351e-05 -0.000231034 -0.00367187
-7.09828e-06 -0.000231156 -0.00367197
-3.9999e-06 -0.000231202 -0.00367505
-4.88791e-07 -0.000231142 -0.00368119
3.70059e-06 -0.000230929 -0.00369039
8.7777e-06 -0.0002305 -0.00370272
1.4801e-05 -0.000229758 -0.00371816
2.14343e-05 -0.000228546 -0.00373661
2.74664e-05 -0.000226598 -0.00375598
3.00756e-05 -0.000223319 -0.00374532
2.51559e-05 -0.000216126 -0.00344984
1.2578e-05 -0.000175863 -0.0018054
-2.06276e-05 -0.000470682 -0.00370376
-3.83886e-05 -0.000599677 -0.00663325
-4.58939e-05 -0.000620468 -0.00712284
-4.61406e-05 -0.000626668 -0.0071473
-4.25449e-05 -0.000629426 -0.00712949
-3.72781e-05 -0.000630967 -0.00711418
-3.14795e-05 -0.000631982 -0.00710315
-2.56482e-05 -0.000632719 -0.00709594
-1.99186e-05 -0.000633256 -0.00709235
-1.4213e-05 -0.0006336 -0.00709232
-8.32201e-06 -0.000633713 -0.00709588
-1.94386e-06 -0.000633525 -0.00710311
5.26648e-06 -0.00063293 -0.00711403
1.3633e-05 -0.000631771 -0.00712866
2.33579e-05 -0.000629808 -0.00714694
3.42858e-05 -0.000626697 -0.00716856
4.54525e-05 -0.000621873 -0.00719028
5.3956e-05 -0.000614006 -0.0071648
5.18264e-05 -0.000594823 -0.00666603
2.59132e-05 -0.000474031 -0.00371803
-3.27771e-05 -0.000834456 -0.00458124
-5.60864e-05 -0.00107752 -0.00796663
-6.42034e-05 -0.00111417 -0.00851995
-6.29994e-05 -0.00112442 -0.00855042
-5.72685e-05 -0.00112919 -0.00853322
-4.97582e-05 -0.00113198 -0.00851796
-4.18275e-05 -0.00113383 -0.00850691
-3.40425e-05 -0.00113516 -0.0084997
-2.65372e-05 -0.00113611 -0.00849616
-1.91918e-05 -0.0011367 -0.00849626
-1.17324e-05 -0.00113689 -0.00850003
-3.78144e-06 -0.00113655 -0.00850754
5.11123e-06 -0.00113552 -0.00851879
1.54038e-05 -0.00113353 -0.00853373
2.74625e-05 -0.00113022 -0.0085522
4.13635e-05 -0.00112506 -0.0085737
5.64635e-05 -0.00111726 -0.00859436
7.00842e-05 -0.00110468 -0.00856192
7.19063e-05 -0.00107013 -0.00799867
3.59531e-05 -0.000837074 -0.0045957
-4.40068e-05 -0.00123814 -0.00544329
-7.29535e-05 -0.00162204 -0.00923868
-8.19084e-05 -0.00167788 -0.00985206
-7.93677e-05 -0.00169224 -0.00988887
-7.1551e-05 -0.00169896 -0.00987232
-6.18345e-05 -0.00170297 -0.00985712
-5.18337e-05 -0.00170566 -0.00984604
-4.21834e-05 -0.00170758 -0.00983881
-3.30009e-05 -0.00170894 -0.00983532
-2.41175e-05 -0.00170978 -0.00983556
-1.51767e-05 -0.00171005 -0.00983956
-5.69786e-06 -0.00170959 -0.00984737
4.88563e-06 -0.00170814 -0.009859
1.71773e-05 -0.00170535 -0.00987429
3.17131e-05 -0.00170073 -0.00989295
4.87493e-05 -0.00169361 -0.00991424
6.78171e-05 -0.00168303 -0.00993368
8.61293e-05 -0.00166583 -0.00989394
9.08648e-05 -0.00161248 -0.00927007
4.54324e-05 -0.00123982 -0.00545832
-5.4921e-05 -0.00167094 -0.00653756
-8.98487e-05 -0.00221945 -0.0108513
-9.99919e-05 -0.00229803 -0.0115405
-9.63109e-05 -0.00231657 -0.0115847
-8.64817e-05 -0.00232511 -0.0115686
-7.45715e-05 -0.00233026 -0.0115533
-6.24751e-05 -0.00233371 -0.011542
-5.09173e-05 -0.00233618 -0.0115346
-4.00054e-05 -0.00233794 -0.0115311
-2.95124e-05 -0.00233906 -0.0115315
-1.89917e-05 -0.00233945 -0.0115357
-7.84891e-06 -0.00233892 -0.0115439
4.61661e-06 -0.00233715 -0.0115559
1.91589e-05 -0.00233366 -0.0115718
3.64761e-05 -0.00232786 -0.0115909
5.69675e-05 -0.00231893 -0.0116122
8.02309e-05 -0.00230576 -0.0116307
0.000103156 -0.00228389 -0.0115827
0.000110151 -0.00220804 -0.0108825
5.50753e-05 -0.0016717 -0.00655331
-6.61475e-05 -0.00212583 -0.00791919
-0.000107513 -0.0028599 -0.012884
-0.000119106 -0.00296481 -0.0136673
-0.000114341 -0.00298766 -0.0137202
-0.000102448 -0.00299786 -0.0137043
-8.82448e-05 -0.00300401 -0.0136886
-7.39483e-05 -0.00300814 -0.013677
-6.03874e-05 -0.00301111 -0.0136694
-4.7661e-05 -0.00301326 -0.0136658
-3.54758e-05 -0.00301468 -0.0136662
-2.3285e-05 -0.00301526 -0.0136707
-1.03614e-05 -0.00301477 -0.0136792
4.15166e-06 -0.00301281 -0.0136919
2.11759e-05 -0.00300881 -0.0137084
4.15786e-05 -0.00300199 -0.0137281
6.58901e-05 -0.00299143 -0.0137499
9.37065e-05 -0.00297581 -0.0137677
0.000121433 -0.00294903 -0.0137103
0.000130459 -0.00284688 -0.0129154
6.52293e-05 -0.00212574 -0.00793575
-7.8152e-05 -0.0025931 -0.00963439
-0.000126509 -0.00353054 -0.0154004
-0.000139725 -0.00366522 -0.0162985
-0.000133809 -0.00369249 -0.0163616
-0.000119677 -0.00370412 -0.0163458
-0.000102989 -0.00371107 -0.0163296
-8.63242e-05 -0.00371574 -0.0163175
-7.06287e-05 -0.00371912 -0.0163097
-5.59922e-05 -0.00372163 -0.0163059
-4.20435e-05 -0.00372337 -0.0163064
-2.81221e-05 -0.00372424 -0.0163111
-1.33501e-05 -0.00372395 -0.0163201
3.32235e-06 -0.00372201 -0.0163334
2.30228e-05 -0.00371774 -0.0163506
4.68163e-05 -0.0037102 -0.0163712
7.53659e-05 -0.00369826 -0.0163936
0.000108231 -0.00368035 -0.0164111
0.000141209 -0.00364834 -0.0163427
0.000152363 -0.00351613 -0.0154322
7.61816e-05 -0.0025922 -0.00965176
-9.12381e-05 -0.0030558 -0.0117401
-0.000147164 -0.00421015 -0.0184782
-0.000162067 -0.00437759 -0.019515
-0.000154799 -0.00440922 -0.0195902
-0.000138148 -0.0044219 -0.0195746
-0.000118715 -0.00442931 -0.0195579
-9.94808e-05 -0.00443427 -0.0195453
-8.15145e-05 -0.0044379 -0.0195371
-6.48953e-05 -0.00444069 -0.0195332
-4.91647e-05 -0.00444277 -0.0195337
-3.35247e-05 -0.00444403 -0.0195386
-1.69177e-05 -0.00444414 -0.0195481
1.93227e-06 -0.00444255 -0.0195621
2.44137e-05 -0.00443841 -0.0195801
5.18466e-05 -0.00443061 -0.0196016
8.5076e-05 -0.00441775 -0.0196247
0.000123614 -0.00439788 -0.0196417
0.000162545 -0.0043604 -0.0195604
0.000176203 -0.00419467 -0.0185104
8.81013e-05 -0.00305402 -0.0117582
-0.000105466 -0.00348552 -0.0143002
-0.000169416 -0.00486393 -0.0222048
-0.000185892 -0.00506626 -0.0234071