# vtk DataFile Version 2.0 
Visualization 
ASCII 
DATASET STRUCTURED_GRID 
DIMENSIONS 21 21 11
POINTS 4851 float
-0.1 -0.1 0.9
0 -0.1 0.9
0.1 -0.1 0.9
0.2 -0.1 0.9
0.3 -0.1 0.9
0.4 -0.1 0.9
0.5 -0.1 0.9
0.6 -0.1 0.9
0.7 -0.1 0.9
0.8 -0.1 0.9
0.9 -0.1 0.9
1 -0.1 0.9
1.1 -0.1 0.9
1.2 -0.1 0.9
1.3 -0.1 0.9
1.4 -0.1 0.9
1.5 -0.1 0.9
1.6 -0.1 0.9
1.7 -0.1 0.9
1.8 -0.1 0.9
1.9 -0.1 0.9
-0.1 0 0.9
0 0 0.9
0.1 0 0.9
0.2 0 0.9
0.3 0 0.9
0.4 0 0.9
0.5 0 0.9
0.6 0 0.9
0.7 0 0.9
0.8 0 0.9
0.9 0 0.9
1 0 0.9
1.1 0 0.9
1.2 0 0.9
1.3 0 0.9
1.4 0 0.9
1.5 0 0.9
1.6 0 0.9
1.7 0 0.9
1.8 0 0.9
1.9 0 0.9
-0.1 0.1 0.9
0 0.1 0.9
0.1 0.1 0.9
0.2 0.1 0.9
0.3 0.1 0.9
0.4 0.1 0.9
0.5 0.1 0.9
0.6 0.1 0.9
0.7 0.1 0.9
0.8 0.1 0.9
0.9 0.1 0.9
1 0.1 0.9
1.1 0.1 0.9
1.2 0.1 0.9
1.3 0.1 0.9
1.4 0.1 0.9
1.5 0.1 0.9
1.6 0.1 0.9
1.7 0.1 0.9
1.8 0.1 0.9
1.9 0.1 0.9
-0.1 0.2 0.9
0 0.2 0.9
0.1 0.2 0.9
0.2 0.2 0.9
0.3 0.2 0.9
0.4 0.2 0.9
0.5 0.2 0.9
0.6 0.2 0.9
0.7 0.2 0.9
0.8 0.2 0.9
0.9 0.2 0.9
1 0.2 0.9
1.1 0.2 0.9
1.2 0.2 0.9
1.3 0.2 0.9
1.4 0.2 0.9
1.5 0.2 0.9
1.6 0.2 0.9
1.7 0.2 0.9
1.8 0.2 0.9
1.9 0.2 0.9
-0.1 0.3 0.9
0 0.3 0.9
0.1 0.3 0.9
0.2 0.3 0.9
0.3 0.3 0.9
0.4 0.3 0.9
0.5 0.3 0.9
0.6 0.3 0.9
0.7 0.3 0.9
0.8 0.3 0.9
0.9 0.3 0.9
1 0.3 0.9
1.1 0.3 0.9
1.2 0.3 0.9
1.3 0.3 0.9
1.4 0.3 0.9
1.5 0.3 0.9
1.6 0.3 0.9
1.7 0.3 0.9
1.8 0.3 0.9
1.9 0.3 0.9
-0.1 0.4 0.9
0 0.4 0.9
0.1 0.4 0.9
0.2 0.4 0.9
0.3 0.4 0.9
0.4 0.4 0.9
0.5 0.4 0.9
0.6 0.4 0.9
0.7 0.4 0.9
0.8 0.4 0.9
0.9 0.4 0.9
1 0.4 0.9
1.1 0.4 0.9
1.2 0.4 0.9
1.3 0.4 0.9
1.4 0.4 0.9
1.5 0.4 0.9
1.6 0.4 0.9
1.7 0.4 0.9
1.8 0.4 0.9
1.9 0.4 0.9
-0.1 0.5 0.9
0 0.5 0.9
0.1 0.5 0.9
0.2 0.5 0.9
0.3 0.5 0.9
0.4 0.5 0.9
0.5 0.5 0.9
0.6 0.5 0.9
0.7 0.5 0.9
0.8 0.5 0.9
0.9 0.5 0.9
1 0.5 0.9
1.1 0.5 0.9
1.2 0.5 0.9
1.3 0.5 0.9
1.4 0.5 0.9
1.5 0.5 0.9
1.6 0.5 0.9
1.7 0.5 0.9
1.8 0.5 0.9
1.9 0.5 0.9
-0.1 0.6 0.9
0 0.6 0.9
0.1 0.6 0.9
0.2 0.6 0.9
0.3 0.6 0.9
0.4 0.6 0.9
0.5 0.6 0.9
0.6 0.6 0.9
0.7 0.6 0.9
0.8 0.6 0.9
0.9 0.6 0.9
1 0.6 0.9
1.1 0.6 0.9
1.2 0.6 0.9
1.3 0.6 0.9
1.4 0.6 0.9
1.5 0.6 0.9
1.6 0.6 0.9
1.7 0.6 0.9
1.8 0.6 0.9
1.9 0.6 0.9
-0.1 0.7 0.9
0 0.7 0.9
0.1 0.7 0.9
0.2 0.7 0.9
0.3 0.7 0.9
0.4 0.7 0.9
0.5 0.7 0.9
0.6 0.7 0.9
0.7 0.7 0.9
0.8 0.7 0.9
0.9 0.7 0.9
1 0.7 0.9
1.1 0.7 0.9
1.2 0.7 0.9
1.3 0.7 0.9
1.4 0.7 0.9
1.5 0.7 0.9
1.6 0.7 0.9
1.7 0.7 0.9
1.8 0.7 0.9
1.9 0.7 0.9
-0.1 0.8 0.9
0 0.8 0.9
0.1 0.8 0.9
0.2 0.8 0.9
0.3 0.8 0.9
0.4 0.8 0.9
0.5 0.8 0.9
0.6 0.8 0.9
0.7 0.8 0.9
0.8 0.8 0.9
0.9 0.8 0.9
1 0.8 0.9
1.1 0.8 0.9
1.2 0.8 0.9
1.3 0.8 0.9
1.4 0.8 0.9
1.5 0.8 0.9
1.6 0.8 0.9
1.7 0.8 0.9
1.8 0.8 0.9
1.9 0.8 0.9
-0.1 0.9 0.9
0 0.9 0.9
0.1 0.9 0.9
0.2 0.9 0.9
0.3 0.9 0.9
0.4 0.9 0.9
0.5 0.9 0.9
0.6 0.9 0.9
0.7 0.9 0.9
0.8 0.9 0.9
0.9 0.9 0.9
1 0.9 0.9
1.1 0.9 0.9
1.2 0.9 0.9
1.3 0.9 0.9
1.4 0.9 0.9
1.5 0.9 0.9
1.6 0.9 0.9
1.7 0.9 0.9
1.8 0.9 0.9
1.9 0.9 0.9
-0.1 1 0.9
0 1 0.9
0.1 1 0.9
0.2 1 0.9
0.3 1 0.9
0.4 1 0.9
0.5 1 0.9
0.6 1 0.9
0.7 1 0.9
0.8 1 0.9
0.9 1 0.9
1 1 0.9
1.1 1 0.9
1.2 1 0.9
1.3 1 0.9
1.4 1 0.9
1.5 1 0.9
1.6 1 0.9
1.7 1 0.9
1.8 1 0.9
1.9 1 0.9
-0.1 1.1 0.9
0 1.1 0.9
0.1 1.1 0.9
0.2 1.1 0.9
0.3 1.1 0.9
0.4 1.1 0.9
0.5 1.1 0.9
0.6 1.1 0.9
0.7 1.1 0.9
0.8 1.1 0.9
0.9 1.1 0.9
1 1.1 0.9
1.1 1.1 0.9
1.2 1.1 0.9
1.3 1.1 0.9
1.4 1.1 0.9
1.5 1.1 0.9
1.6 1.1 0.9
1.7 1.1 0.9
1.8 1.1 0.9
1.9 1.1 0.9
-0.1 1.2 0.9
0 1.2 0.9
0.1 1.2 0.9
0.2 1.2 0.9
0.3 1.2 0.9
0.4 1.2 0.9
0.5 1.2 0.9
0.6 1.2 0.9
0.7 1.2 0.9
0.8 1.2 0.9
0.9 1.2 0.9
1 1.2 0.9
1.1 1.2 0.9
1.2 1.2 0.9
1.3 1.2 0.9
1.4 1.2 0.9
1.5 1.2 0.9
1.6 1.2 0.9
1.7 1.2 0.9
1.8 1.2 0.9
1.9 1.2 0.9
-0.1 1.3 0.9
0 1.3 0.9
0.1 1.3 0.9
0.2 1.3 0.9
0.3 1.3 0.9
0.4 1.3 0.9
0.5 1.3 0.9
0.6 1.3 0.9
0.7 1.3 0.9
0.8 1.3 0.9
0.9 1.3 0.9
1 1.3 0.9
1.1 1.3 0.9
1.2 1.3 0.9
1.3 1.3 0.9
1.4 1.3 0.9
1.5 1.3 0.9
1.6 1.3 0.9
1.7 1.3 0.9
1.8 1.3 0.9
1.9 1.3 0.9
-0.1 1.4 0.9
0 1.4 0.9
0.1 1.4 0.9
0.2 1.4 0.9
0.3 1.4 0.9
0.4 1.4 0.9
0.5 1.4 0.9
0.6 1.4 0.9
0.7 1.4 0.9
0.8 1.4 0.9
0.9 1.4 0.9
1 1.4 0.9
1.1 1.4 0.9
1.2 1.4 0.9
1.3 1.4 0.9
1.4 1.4 0.9
1.5 1.4 0.9
1.6 1.4 0.9
1.7 1.4 0.9
1.8 1.4 0.9
1.9 1.4 0.9
-0.1 1.5 0.9
0 1.5 0.9
0.1 1.5 0.9
0.2 1.5 0.9
0.3 1.5 0.9
0.4 1.5 0.9
0.5 1.5 0.9
0.6 1.5 0.9
0.7 1.5 0.9
0.8 1.5 0.9
0.9 1.5 0.9
1 1.5 0.9
1.1 1.5 0.9
1.2 1.5 0.9
1.3 1.5 0.9
1.4 1.5 0.9
1.5 1.5 0.9
1.6 1.5 0.9
1.7 1.5 0.9
1.8 1.5 0.9
1.9 1.5 0.9
-0.1 1.6 0.9
0 1.6 0.9
0.1 1.6 0.9
0.2 1.6 0.9
0.3 1.6 0.9
0.4 1.6 0.9
0.5 1.6 0.9
0.6 1.6 0.9
0.7 1.6 0.9
0.8 1.6 0.9
0.9 1.6 0.9
1 1.6 0.9
1.1 1.6 0.9
1.2 1.6 0.9
1.3 1.6 0.9
1.4 1.6 0.9
1.5 1.6 0.9
1.6 1.6 0.9
1.7 1.6 0.9
1.8 1.6 0.9
1.9 1.6 0.9
-0.1 1.7 0.9
0 1.7 0.9
0.1 1.7 0.9
0.2 1.7 0.9
0.3 1.7 0.9
0.4 1.7 0.9
0.5 1.7 0.9
0.6 1.7 0.9
0.7 1.7 0.9
0.8 1.7 0.9
0.9 1.7 0.9
1 1.7 0.9
1.1 1.7 0.9
1.2 1.7 0.9
1.3 1.7 0.9
1.4 1.7 0.9
1.5 1.7 0.9
1.6 1.7 0.9
1.7 1.7 0.9
1.8 1.7 0.9
1.9 1.7 0.9
-0.1 1.8 0.9
0 1.8 0.9
0.1 1.8 0.9
0.2 1.8 0.9
0.3 1.8 0.9
0.4 1.8 0.9
0.5 1.8 0.9
0.6 1.8 0.9
0.7 1.8 0.9
0.8 1.8 0.9
0.9 1.8 0.9
1 1.8 0.9
1.1 1.8 0.9
1.2 1.8 0.9
1.3 1.8 0.9
1.4 1.8 0.9
1.5 1.8 0.9
1.6 1.8 0.9
1.7 1.8 0.9
1.8 1.8 0.9
1.9 1.8 0.9
-0.1 1.9 0.9
0 1.9 0.9
0.1 1.9 0.9
0.2 1.9 0.9
0.3 1.9 0.9
0.4 1.9 0.9
0.5 1.9 0.9
0.6 1.9 0.9
0.7 1.9 0.9
0.8 1.9 0.9
0.9 1.9 0.9
1 1.9 0.9
1.1 1.9 0.9
1.2 1.9 0.9
1.3 1.9 0.9
1.4 1.9 0.9
1.5 1.9 0.9
1.6 1.9 0.9
1.7 1.9 0.9
1.8 1.9 0.9
1.9 1.9 0.9
-0.1 -0.1 1
0 -0.1 1
0.1 -0.1 1
0.2 -0.1 1
0.3 -0.1 1
0.4 -0.1 1
0.5 -0.1 1
0.6 -0.1 1
0.7 -0.1 1
0.8 -0.1 1
0.9 -0.1 1
1 -0.1 1
1.1 -0.1 1
1.2 -0.1 1
1.3 -0.1 1
1.4 -0.1 1
1.5 -0.1 1
1.6 -0.1 1
1.7 -0.1 1
1.8 -0.1 1
1.9 -0.1 1
-0.1 0 1
0 0 1
0.1 0 1
0.2 0 1
0.3 0 1
0.4 0 1
0.5 0 1
0.6 0 1
0.7 0 1
0.8 0 1
0.9 0 1
1 0 1
1.1 0 1
1.2 0 1
1.3 0 1
1.4 0 1
1.5 0 1
1.6 0 1
1.7 0 1
1.8 0 1
1.9 0 1
-0.1 0.1 1
0 0.1 1
0.1 0.1 1
0.2 0.1 1
0.3 0.1 1
0.4 0.1 1
0.5 0.1 1
0.6 0.1 1
0.7 0.1 1
0.8 0.1 1
0.9 0.1 1
1 0.1 1
1.1 0.1 1
1.2 0.1 1
1.3 0.1 1
1.4 0.1 1
1.5 0.1 1
1.6 0.1 1
1.7 0.1 1
1.8 0.1 1
1.9 0.1 1
-0.1 0.2 1
0 0.2 1
0.1 0.2 1
0.2 0.2 1
0.3 0.2 1
0.4 0.2 1
0.5 0.2 1
0.6 0.2 1
0.7 0.2 1
0.8 0.2 1
0.9 0.2 1
1 0.2 1
1.1 0.2 1
1.2 0.2 1
1.3 0.2 1
1.4 0.2 1
1.5 0.2 1
1.6 0.2 1
1.7 0.2 1
1.8 0.2 1
1.9 0.2 1
-0.1 0.3 1
0 0.3 1
0.1 0.3 1
0.2 0.3 1
0.3 0.3 1
0.4 0.3 1
0.5 0.3 1
0.6 0.3 1
0.7 0.3 1
0.8 0.3 1
0.9 0.3 1
1 0.3 1
1.1 0.3 1
1.2 0.3 1
1.3 0.3 1
1.4 0.3 1
1.5 0.3 1
1.6 0.3 1
1.7 0.3 1
1.8 0.3 1
1.9 0.3 1
-0.1 0.4 1
0 0.4 1
0.1 0.4 1
0.2 0.4 1
0.3 0.4 1
0.4 0.4 1
0.5 0.4 1
0.6 0.4 1
0.7 0.4 1
0.8 0.4 1
0.9 0.4 1
1 0.4 1
1.1 0.4 1
1.2 0.4 1
1.3 0.4 1
1.4 0.4 1
1.5 0.4 1
1.6 0.4 1
1.7 0.4 1
1.8 0.4 1
1.9 0.4 1
-0.1 0.5 1
0 0.5 1
0.1 0.5 1
0.2 0.5 1
0.3 0.5 1
0.4 0.5 1
0.5 0.5 1
0.6 0.5 1
0.7 0.5 1
0.8 0.5 1
0.9 0.5 1
1 0.5 1
1.1 0.5 1
1.2 0.5 1
1.3 0.5 1
1.4 0.5 1
1.5 0.5 1
1.6 0.5 1
1.7 0.5 1
1.8 0.5 1
1.9 0.5 1
-0.1 0.6 1
0 0.6 1
0.1 0.6 1
0.2 0.6 1
0.3 0.6 1
0.4 0.6 1
0.5 0.6 1
0.6 0.6 1
0.7 0.6 1
0.8 0.6 1
0.9 0.6 1
1 0.6 1
1.1 0.6 1
1.2 0.6 1
1.3 0.6 1
1.4 0.6 1
1.5 0.6 1
1.6 0.6 1
1.7 0.6 1
1.8 0.6 1
1.9 0.6 1
-0.1 0.7 1
0 0.7 1
0.1 0.7 1
0.2 0.7 1
0.3 0.7 1
0.4 0.7 1
0.5 0.7 1
0.6 0.7 1
0.7 0.7 1
0.8 0.7 1
0.9 0.7 1
1 0.7 1
1.1 0.7 1
1.2 0.7 1
1.3 0.7 1
1.4 0.7 1
1.5 0.7 1
1.6 0.7 1
1.7 0.7 1
1.8 0.7 1
1.9 0.7 1
-0.1 0.8 1
0 0.8 1
0.1 0.8 1
0.2 0.8 1
0.3 0.8 1
0.4 0.8 1
0.5 0.8 1
0.6 0.8 1
0.7 0.8 1
0.8 0.8 1
0.9 0.8 1
1 0.8 1
1.1 0.8 1
1.2 0.8 1
1.3 0.8 1
1.4 0.8 1
1.5 0.8 1
1.6 0.8 1
1.7 0.8 1
1.8 0.8 1
1.9 0.8 1
-0.1 0.9 1
0 0.9 1
0.1 0.9 1
0.2 0.9 1
0.3 0.9 1
0.4 0.9 1
0.5 0.9 1
0.6 0.9 1
0.7 0.9 1
0.8 0.9 1
0.9 0.9 1
1 0.9 1
1.1 0.9 1
1.2 0.9 1
1.3 0.9 1
1.4 0.9 1
1.5 0.9 1
1.6 0.9 1
1.7 0.9 1
1.8 0.9 1
1.9 0.9 1
-0.1 1 1
0 1 1
0.1 1 1
0.2 1 1
0.3 1 1
0.4 1 1
0.5 1 1
0.6 1 1
0.7 1 1
0.8 1 1
0.9 1 1
1 1 1
1.1 1 1
1.2 1 1
1.3 1 1
1.4 1 1
1.5 1 1
1.6 1 1
1.7 1 1
1.8 1 1
1.9 1 1
-0.1 1.1 1
0 1.1 1
0.1 1.1 1
0.2 1.1 1
0.3 1.1 1
0.4 1.1 1
0.5 1.1 1
0.6 1.1 1
0.7 1.1 1
0.8 1.1 1
0.9 1.1 1
1 1.1 1
1.1 1.1 1
1.2 1.1 1
1.3 1.1 1
1.4 1.1 1
1.5 1.1 1
1.6 1.1 1
1.7 1.1 1
1.8 1.1 1
1.9 1.1 1
-0.1 1.2 1
0 1.2 1
0.1 1.2 1
0.2 1.2 1
0.3 1.2 1
0.4 1.2 1
0.5 1.2 1
0.6 1.2 1
0.7 1.2 1
0.8 1.2 1
0.9 1.2 1
1 1.2 1
1.1 1.2 1
1.2 1.2 1
1.3 1.2 1
1.4 1.2 1
1.5 1.2 1
1.6 1.2 1
1.7 1.2 1
1.8 1.2 1
1.9 1.2 1
-0.1 1.3 1
0 1.3 1
0.1 1.3 1
0.2 1.3 1
0.3 1.3 1
0.4 1.3 1
0.5 1.3 1
0.6 1.3 1
0.7 1.3 1
0.8 1.3 1
0.9 1.3 1
1 1.3 1
1.1 1.3 1
1.2 1.3 1
1.3 1.3 1
1.4 1.3 1
1.5 1.3 1
1.6 1.3 1
1.7 1.3 1
1.8 1.3 1
1.9 1.3 1
-0.1 1.4 1
0 1.4 1
0.1 1.4 1
0.2 1.4 1
0.3 1.4 1
0.4 1.4 1
0.5 1.4 1
0.6 1.4 1
0.7 1.4 1
0.8 1.4 1
0.9 1.4 1
1 1.4 1
1.1 1.4 1
1.2 1.4 1
1.3 1.4 1
1.4 1.4 1
1.5 1.4 1
1.6 1.4 1
1.7 1.4 1
1.8 1.4 1
1.9 1.4 1
-0.1 1.5 1
0 1.5 1
0.1 1.5 1
0.2 1.5 1
0.3 1.5 1
0.4 1.5 1
0.5 1.5 1
0.6 1.5 1
0.7 1.5 1
0.8 1.5 1
0.9 1.5 1
1 1.5 1
1.1 1.5 1
1.2 1.5 1
1.3 1.5 1
1.4 1.5 1
1.5 1.5 1
1.6 1.5 1
1.7 1.5 1
1.8 1.5 1
1.9 1.5 1
-0.1 1.6 1
0 1.6 1
0.1 1.6 1
0.2 1.6 1
0.3 1.6 1
0.4 1.6 1
0.5 1.6 1
0.6 1.6 1
0.7 1.6 1
0.8 1.6 1
0.9 1.6 1
1 1.6 1
1.1 1.6 1
1.2 1.6 1
1.3 1.6 1
1.4 1.6 1
1.5 1.6 1
1.6 1.6 1
1.7 1.6 1
1.8 1.6 1
1.9 1.6 1
-0.1 1.7 1
0 1.7 1
0.1 1.7 1
0.2 1.7 1
0.3 1.7 1
0.4 1.7 1
0.5 1.7 1
0.6 1.7 1
0.7 1.7 1
0.8 1.7 1
0.9 1.7 1
1 1.7 1
1.1 1.7 1
1.2 1.7 1
1.3 1.7 1
1.4 1.7 1
1.5 1.7 1
1.6 1.7 1
1.7 1.7 1
1.8 1.7 1
1.9 1.7 1
-0.1 1.8 1
0 1.8 1
0.1 1.8 1
0.2 1.8 1
0.3 1.8 1
0.4 1.8 1
0.5 1.8 1
0.6 1.8 1
0.7 1.8 1
0.8 1.8 1
0.9 1.8 1
1 1.8 1
1.1 1.8 1
1.2 1.8 1
1.3 1.8 1
1.4 1.8 1
1.5 1.8 1
1.6 1.8 1
1.7 1.8 1
1.8 1.8 1
1.9 1.8 1
-0.1 1.9 1
0 1.9 1
0.1 1.9 1
0.2 1.9 1
0.3 1.9 1
0.4 1.9 1
0.5 1.9 1
0.6 1.9 1
0.7 1.9 1
0.8 1.9 1
0.9 1.9 1
1 1.9 1
1.1 1.9 1
1.2 1.9 1
1.3 1.9 1
1.4 1.9 1
1.5 1.9 1
1.6 1.9 1
1.7 1.9 1
1.8 1.9 1
1.9 1.9 1
-0.1 -0.1 1.1
0 -0.1 1.1
0.1 -0.1 1.1
0.2 -0.1 1.1
0.3 -0.1 1.1
0.4 -0.1 1.1
0.5 -0.1 1.1
0.6 -0.1 1.1
0.7 -0.1 1.1
0.8 -0.1 1.1
0.9 -0.1 1.1
1 -0.1 1.1
1.1 -0.1 1.1
1.2 -0.1 1.1
1.3 -0.1 1.1
1.4 -0.1 1.1
1.5 -0.1 1.1
1.6 -0.1 1.1
1.7 -0.1 1.1
1.8 -0.1 1.1
1.9 -0.1 1.1
-0.1 0 1.1
0 0 1.1
0.1 0 1.1
0.2 0 1.1
0.3 0 1.1
0.4 0 1.1
0.5 0 1.1
0.6 0 1.1
0.7 0 1.1
0.8 0 1.1
0.9 0 1.1
1 0 1.1
1.1 0 1.1
1.2 0 1.1
1.3 0 1.1
1.4 0 1.1
1.5 0 1.1
[...]
CELL_DATA 4000
VECTORS velocity double 
-4.6086e-05 -0.000231391 0.00227177
-7.96044e-05 -0.000283247 0.00223184
-9.51813e-05 -0.000301801 0.00200948
-9.77742e-05 -0.000309532 0.00197364
-9.47057e-05 -0.000312097 0.00198801
-9.03269e-05 -0.000312745 0.00199935
-8.62919e-05 -0.000312805 0.0019997
-8.27771e-05 -0.000312739 0.00198994
-7.92334e-05 -0.000312648 0.00197132
-7.47838e-05 -0.000312477 0.00194457
-6.84708e-05 -0.000312114 0.0019103
-5.93604e-05 -0.000311392 0.00186929
-4.66676e-05 -0.000310098 0.00182271
-2.99982e-05 -0.000307967 0.00177216
-9.72036e-06 -0.000304658 0.0017195
1.26287e-05 -0.000299709 0.00166781
3.3304e-05 -0.0002924 0.00163072
4.39826e-05 -0.000281722 0.00167194
3.14164e-05 -0.000266747 0.00194637
1.57082e-05 -0.000226302 0.00210366
-6.93983e-05 -0.00059146 0.00193499
-0.00012757 -0.000745162 0.000642641
-0.000156538 -0.000790233 -8.35964e-05
-0.000164984 -0.000809174 -0.000227985
-0.000163832 -0.000816463 -0.00022121
-0.000159265 -0.000819022 -0.000204077
-0.000153791 -0.000819881 -0.000200302
-0.000147944 -0.000820187 -0.000210505
-0.00014125 -0.000820228 -0.000233264
-0.000132753 -0.000819923 -0.000267646
-0.00012129 -0.000819007 -0.000312877
-0.000105637 -0.000817066 -0.000367919
-8.46481e-05 -0.000813557 -0.000431244
-5.7526e-05 -0.000807822 -0.000500737
-2.42299e-05 -0.000799075 -0.000573817
1.41295e-05 -0.000786336 -0.000645038
5.39562e-05 -0.000768346 -0.00068402
8.43463e-05 -0.000743472 -0.000535722
7.82704e-05 -0.000707595 0.000261915
3.91352e-05 -0.00058312 0.00173128
-9.99459e-05 -0.00102621 0.00105308
-0.000178817 -0.00131574 -0.0011938
-0.000215517 -0.00139161 -0.0022183
-0.000224612 -0.00142321 -0.00242388
-0.000221104 -0.00143629 -0.00242344
-0.000213096 -0.00144156 -0.00240463
-0.000203835 -0.00144381 -0.00239931
-0.000194045 -0.00144491 -0.00240909
-0.00018321 -0.00144537 -0.00243263
-0.00017022 -0.00144509 -0.00246894
-0.000153682 -0.00144362 -0.00251721
-0.000132088 -0.00144027 -0.00257624
-0.000103973 -0.0014341 -0.00264426
-6.81978e-05 -0.00142402 -0.00271884
-2.43328e-05 -0.00140878 -0.00279689
2.689e-05 -0.00138696 -0.00287171
8.20919e-05 -0.00135696 -0.00290508
0.000128767 -0.00131691 -0.00269532
0.000130275 -0.00125688 -0.0015946
6.51377e-05 -0.00101458 0.000845844
-0.000132096 -0.00151101 2.14383e-05
-0.000233113 -0.00196878 -0.00307769
-0.000278277 -0.00208136 -0.00433465
-0.000287953 -0.00212727 -0.00458533
-0.000281511 -0.00214707 -0.00458972
-0.000269238 -0.0021557 -0.00456975
-0.000255274 -0.00215981 -0.00456324
-0.000240633 -0.00216208 -0.0045727
-0.0002248 -0.00216329 -0.00459685
-0.000206477 -0.00216332 -0.0046347
-0.000184012 -0.00216146 -0.00468536
-0.000155554 -0.00215671 -0.00474755
-0.000119266 -0.00214772 -0.00481912
-7.3661e-05 -0.00213291 -0.00489719
-1.79935e-05 -0.00211053 -0.00497808
4.71641e-05 -0.00207872 -0.00505388
0.000118051 -0.00203559 -0.00508078
0.000179883 -0.00197877 -0.00482404
0.000186302 -0.00188924 -0.00348859
9.3151e-05 -0.00149661 -0.000188842
-0.000167363 -0.00203073 -0.00131807
-0.000293288 -0.00268747 -0.00541543
-0.000348139 -0.00284407 -0.00693366
-0.000358546 -0.00290637 -0.00723528
-0.000348786 -0.00293383 -0.00724584
-0.000331629 -0.0029464 -0.00722504
-0.000312289 -0.00295282 -0.00721746
-0.00029215 -0.00295666 -0.00722665
-0.000270678 -0.00295899 -0.0072515
-0.000246324 -0.00295964 -0.00729094
-0.000217118 -0.00295769 -0.00734405
-0.000180824 -0.00295176 -0.00740942
-0.000135159 -0.00294005 -0.00748454
-7.82309e-05 -0.0029204 -0.00756587
-8.98587e-06 -0.00289043 -0.00764904
7.20317e-05 -0.00284776 -0.00772482
0.000160451 -0.00279013 -0.00774322
0.000238511 -0.00271418 -0.00743332
0.000249038 -0.00258784 -0.00583517
0.000124519 -0.00201435 -0.00153216
-0.000207687 -0.00256403 -0.00308623
-0.00036227 -0.00344579 -0.00842882
-0.000428184 -0.00365414 -0.0102689
-0.000439264 -0.00373498 -0.0106342
-0.000425498 -0.00377092 -0.0106535
-0.000402594 -0.00378788 -0.0106326
-0.000377038 -0.003797 -0.0106243
-0.000350622 -0.00380281 -0.0106335
-0.000322768 -0.00380666 -0.0106591
-0.000291658 -0.00380833 -0.0107002
-0.000254931 -0.00380675 -0.0107557
-0.000209864 -0.00380013 -0.0108241
-0.000153609 -0.0037861 -0.0109025
-8.37354e-05 -0.00376181 -0.0109867
1.18303e-06 -0.0037241 -0.0110715
0.000100619 -0.0036699 -0.0111461
0.000209392 -0.00359635 -0.0111531
0.000306266 -0.00349839 -0.0107776
0.000321268 -0.00332718 -0.00885696
0.000160634 -0.00254693 -0.00330405
-0.000253995 -0.00307507 -0.00538391
-0.000441443 -0.00419917 -0.012273
-0.000519821 -0.00446635 -0.0145091
-0.000531356 -0.00456753 -0.0149538
-0.000512723 -0.00461245 -0.0149851
-0.000483084 -0.00463404 -0.0149653
-0.000450397 -0.00464613 -0.0149569
-0.000416854 -0.00465425 -0.0149663
-0.000381862 -0.00466 -0.0149928
-0.000343361 -0.00466322 -0.0150356
-0.000298469 -0.00466269 -0.0150933
-0.000243817 -0.00465615 -0.0151643
-0.00017587 -0.00464061 -0.0152453
-9.14523e-05 -0.00461239 -0.0153315
1.13553e-05 -0.00456741 -0.0154167
0.000132162 -0.00450153 -0.0154884
0.000264829 -0.00441098 -0.0154804
0.000383877 -0.00428812 -0.015024
0.000404259 -0.00406404 -0.0127079
0.000202129 -0.00305917 -0.00560447
-0.000306349 -0.00350705 -0.00831167
-0.0005308 -0.00487647 -0.0170978
-0.000622858 -0.0052076 -0.0198158
-0.000634437 -0.00533006 -0.0203582
-0.000609967 -0.00538382 -0.0204057
-0.000572572 -0.00540988 -0.0203884
-0.000531836 -0.00542488 -0.0203808
-0.000490397 -0.00543544 -0.020391
-0.000447681 -0.0054435 -0.0204186
-0.000401381 -0.00544891 -0.0204628
-0.000347982 -0.00545027 -0.0205224
-0.000283321 -0.00544496 -0.0205953
-0.000202973 -0.00542935 -0.0206779
-0.000102816 -0.0053988 -0.0207647
1.9927e-05 -0.00534798 -0.0208485
0.000165096 -0.00527136 -0.0209148
0.000325577 -0.00516362 -0.0208869
0.000470676 -0.00501357 -0.0203317
0.00049776 -0.00472943 -0.017536
0.00024888 -0.00349487 -0.00853312
-0.000363785 -0.00377676 -0.0119605
-0.000628605 -0.00537244 -0.0230415
-0.000735025 -0.00576889 -0.0263388
-0.000745945 -0.00591182 -0.0269999
-0.000714565 -0.00597316 -0.0270685
-0.000668391 -0.00600282 -0.0270553
-0.000618812 -0.00602028 -0.0270494
-0.000569005 -0.00603313 -0.0270611
-0.000518371 -0.00604375 -0.02709
-0.000464273 -0.006052 -0.0271354
-0.000402588 -0.00605631 -0.0271963
-0.000328275 -0.00605387 -0.0272702
-0.000235717 -0.00604044 -0.0273532
-0.000119508 -0.00601037 -0.0274389
2.43851e-05 -0.00595675 -0.027519
0.0001965 -0.00587216 -0.0275768
0.000388628 -0.00574891 -0.0275235
0.000564103 -0.00557074 -0.0268489
0.000599734 -0.00522142 -0.0234782
0.000299867 -0.00377145 -0.0121804
-0.000423837 -0.0037713 -0.01639
-0.000730478 -0.00554232 -0.0302004
-0.00085079 -0.00599908 -0.034184
-0.000859843 -0.0061587 -0.0349864
-0.000820463 -0.00622468 -0.0350808
-0.000764726 -0.0062561 -0.0350737
-0.00070585 -0.00627498 -0.0350703
-0.000647666 -0.00628959 -0.0350837
-0.000589513 -0.00630266 -0.0351142
-0.000528383 -0.00631418 -0.0351607
-0.000459634 -0.00632262 -0.0352222
-0.000377257 -0.00632516 -0.0352962
-0.000274245 -0.00631714 -0.0353783
-0.000143381 -0.00629193 -0.0354612
2.11935e-05 -0.00624092 -0.0355355
0.000221358 -0.0061541 -0.0355822
0.000448317 -0.00602017 -0.0354978
0.000658526 -0.0058159 -0.0346814
0.00070529 -0.00540023 -0.0306303
0.000352645 -0.00377662 -0.0166052
-0.000481823 -0.00334952 -0.0215979
-0.000828013 -0.00520131 -0.0385872
-0.000959739 -0.00570358 -0.0433689
-0.000965052 -0.00587166 -0.0443349
-0.000916672 -0.00593685 -0.044459
-0.000851118 -0.00596678 -0.0444588
-0.000783191 -0.00598524 -0.0444586
-0.000717338 -0.00600058 -0.0444738
-0.000652931 -0.00601556 -0.0445055
-0.000586701 -0.00603043 -0.0445527
-0.000513579 -0.00604405 -0.0446143
-0.000426587 -0.00605386 -0.0446878
-0.000317184 -0.00605532 -0.0447682
-0.000175954 -0.00604116 -0.0448477
5.69201e-06 -0.00600114 -0.0449155
0.00023215 -0.00592209 -0.0449499
0.000495002 -0.00578746 -0.0448306
0.000743576 -0.00556429 -0.0438504
0.00080509 -0.0050877 -0.0390076
0.000402545 -0.00336934 -0.0218054
-0.000529806 -0.0023524 -0.0274878
-0.000906978 -0.00413423 -0.0480852
-0.00104441 -0.00465281 -0.0537736
-0.00104316 -0.00481465 -0.054922
-0.000985114 -0.00487053 -0.0550766
-0.000910456 -0.00489416 -0.0550825
-0.000834992 -0.00490941 -0.0550848
-0.000763452 -0.00492379 -0.0551014
-0.000695361 -0.00493959 -0.0551335
-0.000627491 -0.00495733 -0.0551809
-0.000554508 -0.00497662 -0.0552421
-0.000468794 -0.00499577 -0.0553147
-0.000360333 -0.00501108 -0.0553939
-0.000217213 -0.00501563 -0.0554712
-2.71716e-05 -0.0049982 -0.0555351
0.000218554 -0.00494225 -0.0555605
0.000513935 -0.00482442 -0.0554072
0.000802313 -0.00459813 -0.0542452
0.000883502 -0.00407673 -0.0484998
0.000441751 -0.00238954 -0.0276859
-0.000555222 -0.000628457 -0.0338457
-0.000944736 -0.00212199 -0.0584146
-0.00107741 -0.0026073 -0.0651033
-0.00106582 -0.00273954 -0.0664452
-0.000998325 -0.00277401 -0.0666266
-0.000916903 -0.00278522 -0.0666342
-0.000837321 -0.00279379 -0.0666363
-0.000764058 -0.00280483 -0.0666525
-0.00069678 -0.00281961 -0.0666838
-0.000632651 -0.00283891 -0.06673
-0.000566555 -0.00286331 -0.0667903
-0.000490841 -0.00289281 -0.0668626
-0.000394602 -0.00292566 -0.0669426
-0.000263592 -0.00295682 -0.0670223
-8.10029e-05 -0.00297578 -0.0670897
0.00016834 -0.00296395 -0.0671166
0.000484668 -0.00289014 -0.0669397
0.000809222 -0.00268991 -0.0655869
0.00091631 -0.00215745 -0.0588384
0.000458155 -0.000683112 -0.0340345
-0.000538569 0.00192315 -0.0403369
-0.000906422 0.00101249 -0.0691228
-0.00101734 0.000637631 -0.0768775
-0.000991039 0.00056887 -0.0784116
-0.000916468 0.000571174 -0.0786095
-0.000833518 0.000579235 -0.0786111
-0.000756145 0.00058102 -0.0786076
-0.000687935 0.000576064 -0.0786198
-0.000628654 0.000564783 -0.0786477
-0.000576078 0.000546269 -0.0786911
-0.00052613 0.00051869 -0.0787499
-0.000472056 0.00047978 -0.0788232
-0.000403328 0.000428034 -0.0789084
-0.000304431 0.000364448 -0.0789991
-0.00015438 0.000295716 -0.0790845
7.04619e-05 0.000239029 -0.0791338
0.000381916 0.000231284 -0.0789567
0.000727811 0.000357402 -0.0774193
0.000867002 0.000839049 -0.0695885
0.000433501 0.00185596 -0.0405191
-0.00044976 0.00528434 -0.0465318
-0.000739343 0.00533184 -0.079574
-0.00080357 0.00518183 -0.0884051
-0.00075878 0.00522154 -0.0901119
-0.000683407 0.00527759 -0.0903083
-0.000608886 0.00531126 -0.0902926
-0.000544655 0.00532655 -0.0902762
-0.000492548 0.00533027 -0.0902792
-0.000452258 0.0053252 -0.0902999
-0.000422415 0.00531067 -0.0903381
-0.000400632 0.00528347 -0.0903944
-0.000382378 0.00523883 -0.0904702
-0.000359509 0.00517098 -0.0905659
-0.000317836 0.00507471 -0.0906792
-0.000234614 0.00494863 -0.0908033
-7.81376e-05 0.00480181 -0.0909065
0.000180353 0.00466875 -0.0907684
0.000510389 0.00464938 -0.0890745
0.000682424 0.00497265 -0.0801322
0.000341212 0.00521755 -0.0467128
-0.000236684 0.0092106 -0.0516077
-0.000360015 0.0106673 -0.0882271
-0.000346384 0.0109001 -0.0979357
-0.000284129 0.0111002 -0.099753
-0.000222003 0.0112243 -0.0999213
-0.000173905 0.0112871 -0.0998748
-0.000141313 0.0113174 -0.0998377
-0.000123248 0.0113315 -0.0998259
-0.000118822 0.011335 -0.0998357
-0.000127706 0.0113277 -0.0998658
-0.000149564 0.0113056 -0.0999186
-0.000183329 0.0112616 -0.0999981
-0.000225564 0.0111858 -0.100109
-0.000267596 0.0110656 -0.100257
-0.000290796 0.0108877 -0.100442
-0.000261507 0.0106441 -0.100636
-0.000134556 0.0103501 -0.10059
0.000100123 0.0100965 -0.0988139
0.000280813 0.0100883 -0.0889361
0.000140407 0.00916569 -0.051795
0.000187172 0.0130465 -0.0522384
0.00035488 0.0163815 -0.0881957
0.000474908 0.0171784 -0.097488
0.000539324 0.017581 -0.0991309
0.000559334 0.0177766 -0.0992165
0.000549654 0.0178667 -0.0991264
0.000520265 0.0179109 -0.0990637
0.000476125 0.0179352 -0.0990346
0.000419074 0.0179482 -0.0990312
0.000348788 0.0179503 -0.0990518
0.000263575 0.0179373 -0.0990998
0.000160595 0.0179013 -0.0991824
3.66939e-05 0.0178297 -0.0993103
-0.000109367 0.0177043 -0.0994971
-0.000272471 0.0174993 -0.0997554
-0.000432553 0.017183 -0.100068
-0.000545413 0.0167298 -0.100186
-0.000554795 0.0161715 -0.098621
-0.000459614 0.0156017 -0.0890843
-0.000229807 0.0130443 -0.0524361
0.000918903 0.0154102 -0.0338305
0.00151421 0.0208513 -0.051655
0.00174173 0.0223063 -0.0554329
0.00176291 0.0228997 -0.0558077
0.00168745 0.0231473 -0.0556323
0.00156954 0.0232537 -0.0554787
0.00143286 0.0233066 -0.0553919
0.00128705 0.0233383 -0.0553486
0.00113497 0.0233586 -0.0553347
0.000976044 0.0233689 -0.0553471
0.000807071 0.023366 -0.0553898
0.000621947 0.0233427 -0.055472
0.000411104 0.0232872 -0.0556087
0.000160938 0.0231799 -0.0558217
-0.000145606 0.0229892 -0.0561382
-0.000524966 0.0226644 -0.0565732
-0.0009781 0.022131 -0.0570206
-0.00144461 0.0213063 -0.0567501
-0.00165735 0.0200142 -0.0526644
-0.000828676 0.015442 -0.0340511
0.00188061 0.013905 0.0557655
0.00292382 0.0203225 0.100426
0.00317355 0.0220302 0.112344
0.0030537 0.0226408 0.115228
0.00280019 0.0228737 0.115985
0.00251084 0.0229701 0.116233
0.00222185 0.023018 0.116336
0.00194506 0.0230473 0.116383
0.00168233 0.023067 0.116401
0.00143125 0.0230788 0.116393
0.0011865 0.023081 0.116356
0.00093933 0.0230692 0.116283
0.000675801 0.023035 0.116158
0.000373052 0.0229639 0.115955
-7.51734e-06 0.0228304 0.115634
-0.000531267 0.0225869 0.115109
-0.00129508 0.0221458 0.11408
-0.00234169 0.0213477 0.111102
-0.00315078 0.0197289 0.099472
-0.00157539 0.0139106 0.055455
0.00187965 0.00695248 0.38835
0.00284193 0.0101613 0.52772
0.00292362 0.0110151 0.55207
0.00264047 0.0113204 0.556548
0.00226727 0.0114369 0.557477
0.00190669 0.011485 0.557714
0.00158847 0.011509 0.557792
0.00131561 0.0115237 0.557824
0.0010821 0.0115335 0.557833
0.000879349 0.0115394 0.557826
0.00069815 0.0115405 0.557801
0.000528343 0.0115346 0.557753
0.000356918 0.0115175 0.557672
0.000163831 0.011482 0.557539
-8.73228e-05 0.0114152 0.557315
-0.000469091 0.0112934 0.556887
-0.00111557 0.0110729 0.555765
-0.00214921 0.0106739 0.551229
-0.00304462 0.00986445 0.527079
-0.00152231 0.00695529 0.38787
-1.83943e-05 -0.000198126 0.00267553
-3.38655e-05 -0.0002396 0.00270741
-4.22236e-05 -0.000252379 0.00248915
-4.46898e-05 -0.000257658 0.00245772
-4.54595e-05 -0.000259298 0.0024766
-4.70595e-05 -0.000259594 0.00249095
-5.02376e-05 -0.000259552 0.00249298
-5.47286e-05 -0.000259525 0.00248392
-5.98093e-05 -0.000259587 0.00246515
-6.45166e-05 -0.000259683 0.00243735
-6.7778e-05 -0.000259721 0.00240096
-6.84309e-05 -0.000259548 0.00235656
-6.53169e-05 -0.000258956 0.00230519
-5.75998e-05 -0.000257683 0.00224845
-4.51377e-05 -0.000255376 0.00218855
-2.92095e-05 -0.000251623 0.00212944
-1.36964e-05 -0.000245942 0.0020865
-6.4909e-06 -0.000237896 0.00212701
-1.77842e-05 -0.000226986 0.00240644
-8.89211e-06 -0.000191232 0.00250552
-3.14679e-05 -0.000538931 0.00244787
-6.14674e-05 -0.000671961 0.00124654
-7.77609e-05 -0.000705855 0.000513549
-8.37331e-05 -0.000719499 0.000371846
-8.59266e-05 -0.000724363 0.000384408
-8.80745e-05 -0.000725733 0.000405806
-9.14608e-05 -0.000726034 0.000412014
-9.60062e-05 -0.000726171 0.000402829
-0.000100968 -0.000726379 0.00037985
-0.000105247 -0.000726586 0.000343942
-0.000107491 -0.000726543 0.000295677
-0.000106154 -0.000725875 0.000235832
-9.96169e-05 -0.000724065 0.000165752
-8.64954e-05 -0.000720432 8.75563e-05
-6.61488e-05 -0.000714153 4.26343e-06
-3.95229e-05 -0.000704291 -7.74523e-05
-1.07688e-05 -0.000689937 -0.000124227
9.71876e-06 -0.000670408 2.65664e-05
4.03279e-06 -0.000642474 0.000843805
2.0164e-06 -0.000529722 0.00223947
-5.4101e-05 -0.000984109 0.00163572
-9.95804e-05 -0.00125148 -0.000527785
-0.00012203 -0.001313 -0.00156612
-0.000128993 -0.00133694 -0.00176948
-0.000130001 -0.00134608 -0.00176227
-0.000130188 -0.00134918 -0.00173833
-0.000131347 -0.00135023 -0.00173005
-0.000133542 -0.00135082 -0.00173854
-0.000136003 -0.00135137 -0.00176224
-0.00013749 -0.00135178 -0.00180026
-0.000136449 -0.00135164 -0.001852
-0.000131067 -0.00135031 -0.0019166
-0.000119367 -0.00134688 -0.00199254
-9.95788e-05 -0.00134022 -0.00207737
-7.0657e-05 -0.00132895 -0.00216753
-3.32764e-05 -0.00131165 -0.00225491
8.2714e-06 -0.00128704 -0.00229758
4.17752e-05 -0.00125426 -0.00208401
4.22181e-05 -0.00120412 -0.000954308
2.11091e-05 -0.000973282 0.00142231
-7.98382e-05 -0.00152117 0.000691756
-0.00014333 -0.00196808 -0.00232598
-0.000173122 -0.00206561 -0.00360088
-0.000181247 -0.0021022 -0.00384884
-0.00018064 -0.00211672 -0.00384515
-0.000178131 -0.00212221 -0.00381905
-0.000176218 -0.00212449 -0.00380894
-0.000175181 -0.00212588 -0.00381675
-0.000174228 -0.00212706 -0.00384096
-0.000171988 -0.00212788 -0.00388065
-0.000166661 -0.00212773 -0.00393524
-0.000156102 -0.00212567 -0.00400381
-0.000137942 -0.00212039 -0.00408457
-0.000109965 -0.00211019 -0.00417464
-7.07656e-05 -0.00209313 -0.00426978
-2.08749e-05 -0.00206722 -0.00436048
3.482e-05 -0.00203082 -0.00439862
8.17105e-05 -0.00198242 -0.00413776
8.66988e-05 -0.00190248 -0.00276678
4.33494e-05 -0.00150903 0.00047366
-0.000109066 -0.00214839 -0.000551647
-0.000193559 -0.00282315 -0.00457147
-0.000231981 -0.00296715 -0.00611237
-0.000241399 -0.00301933 -0.00641068
-0.000238738 -0.00304051 -0.00641164
-0.000232878 -0.00304914 -0.00638356
-0.000227182 -0.00305319 -0.00637165
-0.000222211 -0.00305583 -0.00637876
-0.000217162 -0.00305798 -0.00640347
-0.000210473 -0.00305946 -0.00644487
-0.00020007 -0.00305948 -0.00650237
-0.000183408 -0.00305676 -0.00657504
-0.000157618 -0.00304949 -0.00666075
-0.000119991 -0.00303537 -0.00675606
-6.87023e-05 -0.00301177 -0.00685597
-4.26378e-06 -0.00297602 -0.00694935
6.76709e-05 -0.00292595 -0.00698116
0.000129393 -0.00285867 -0.00666675
0.000138339 -0.00273888 -0.00502561
6.91693e-05 -0.00213535 -0.000775311
-0.000143402 -0.00285996 -0.00222795
-0.000252688 -0.00381219 -0.00750478
-0.000301168 -0.00401466 -0.00937455
-0.000311844 -0.00408577 -0.00973629
-0.000306457 -0.00411496 -0.00974439
-0.000296371 -0.0041275 -0.00971495
-0.000286003 -0.00413387 -0.0097015
-0.00027624 -0.0041382 -0.00970803
-0.000266261 -0.0041417 -0.00973326
-0.000254322 -0.00414418 -0.00977637
-0.000237991 -0.00414467 -0.00983674
-0.000214222 -0.00414149 -0.00991335
-0.000179554 -0.00413227 -0.0100039
-0.000130646 -0.00411402 -0.0101042
-6.51502e-05 -0.00408325 -0.0102084
1.64682e-05 -0.00403645 -0.0103036
0.000107536 -0.00397063 -0.0103263
0.000186615 -0.00388051 -0.00994538
0.000199665 -0.00370906 -0.00797175
9.98324e-05 -0.00284669 -0.0024571
-0.000184014 -0.00363684 -0.00445326
-0.000322549 -0.00491451 -0.0113012
-0.000382666 -0.00518823 -0.0135774
-0.000394492 -0.00528168 -0.0140189
-0.000385557 -0.0053201 -0.0140376
-0.000370216 -0.00533723 -0.0140079
-0.000354132 -0.00534643 -0.0139935
-0.000338585 -0.00535288 -0.0139997
-0.000322759 -0.00535814 -0.0140256
-0.000304704 -0.00536205 -0.0140703
-0.000281561 -0.00536343 -0.0141333
-0.000249655 -0.00536021 -0.0142133
-0.000204797 -0.00534941 -0.0143079
-0.000142812 -0.00532718 -0.0144124
-6.06989e-05 -0.005289 -0.0145199
4.12316e-05 -0.00523022 -0.0146152
0.000155101 -0.00514664 -0.014625
0.000254796 -0.00502934 -0.0141613
0.000272524 -0.0047931 -0.0117787
0.000136262 -0.00362441 -0.00468677
-0.000231555 -0.00443835 -0.00734927
-0.000404093 -0.00608278 -0.0161378
-0.000477441 -0.00644033 -0.0189107
-0.000490205 -0.00655914 -0.0194516
-0.00047679 -0.0066076 -0.0194853
-0.000455065 -0.00662969 -0.0194569
-0.000432138 -0.00664202 -0.0194424
-0.000409766 -0.00665094 -0.0194489
-0.000387186 -0.00665837 -0.0194755
-0.000362204 -0.00666419 -0.0195216
-0.000331458 -0.00666707 -0.0195866
-0.000290549 -0.00666454 -0.0196693
-0.000234346 -0.00665301 -0.0197667
-0.000157612 -0.00662764 -0.0198738
-5.63792e-05 -0.00658256 -0.0199824
6.93081e-05 -0.00651166 -0.0200751
0.000210192 -0.00640891 -0.0200669
0.000334443 -0.00626018 -0.0195012
0.00035788 -0.00594534 -0.0166209
0.00017894 -0.00442831 -0.00758493
-0.000285893 -0.00519281 -0.0110357
-0.000496945 -0.00723101 -0.0221889
-0.000584813 -0.00768296 -0.0255622
-0.000598064 -0.00782886 -0.0262253
-0.000579095 -0.00788724 -0.0262795