# vtk DataFile Version 2.0 
Visualization 
ASCII 
DATASET STRUCTURED_GRID 
DIMENSIONS 21 21 11
POINTS 4851 float
-0.1 -0.1 0.9
0 -0.1 0.9
0.1 -0.1 0.9
0.2 -0.1 0.9
0.3 -0.1 0.9
0.4 -0.1 0.9
0.5 -0.1 0.9
0.6 -0.1 0.9
0.7 -0.1 0.9
0.8 -0.1 0.9
0.9 -0.1 0.9
1 -0.1 0.9
1.1 -0.1 0.9
1.2 -0.1 0.9
1.3 -0.1 0.9
1.4 -0.1 0.9
1.5 -0.1 0.9
1.6 -0.1 0.9
1.7 -0.1 0.9
1.8 -0.1 0.9
1.9 -0.1 0.9
-0.1 0 0.9
0 0 0.9
0.1 0 0.9
0.2 0 0.9
0.3 0 0.9
0.4 0 0.9
0.5 0 0.9
0.6 0 0.9
0.7 0 0.9
0.8 0 0.9
0.9 0 0.9
1 0 0.9
1.1 0 0.9
1.2 0 0.9
1.3 0 0.9
1.4 0 0.9
1.5 0 0.9
1.6 0 0.9
1.7 0 0.9
1.8 0 0.9
1.9 0 0.9
-0.1 0.1 0.9
0 0.1 0.9
0.1 0.1 0.9
0.2 0.1 0.9
0.3 0.1 0.9
0.4 0.1 0.9
0.5 0.1 0.9
0.6 0.1 0.9
0.7 0.1 0.9
0.8 0.1 0.9
0.9 0.1 0.9
1 0.1 0.9
1.1 0.1 0.9
1.2 0.1 0.9
1.3 0.1 0.9
1.4 0.1 0.9
1.5 0.1 0.9
1.6 0.1 0.9
1.7 0.1 0.9
1.8 0.1 0.9
1.9 0.1 0.9
-0.1 0.2 0.9
0 0.2 0.9
0.1 0.2 0.9
0.2 0.2 0.9
0.3 0.2 0.9
0.4 0.2 0.9
0.5 0.2 0.9
0.6 0.2 0.9
0.7 0.2 0.9
0.8 0.2 0.9
0.9 0.2 0.9
1 0.2 0.9
1.1 0.2 0.9
1.2 0.2 0.9
1.3 0.2 0.9
1.4 0.2 0.9
1.5 0.2 0.9
1.6 0.2 0.9
1.7 0.2 0.9
1.8 0.2 0.9
1.9 0.2 0.9
-0.1 0.3 0.9
0 0.3 0.9
0.1 0.3 0.9
0.2 0.3 0.9
0.3 0.3 0.9
0.4 0.3 0.9
0.5 0.3 0.9
0.6 0.3 0.9
0.7 0.3 0.9
0.8 0.3 0.9
0.9 0.3 0.9
1 0.3 0.9
1.1 0.3 0.9
1.2 0.3 0.9
1.3 0.3 0.9
1.4 0.3 0.9
1.5 0.3 0.9
1.6 0.3 0.9
1.7 0.3 0.9
1.8 0.3 0.9
1.9 0.3 0.9
-0.1 0.4 0.9
0 0.4 0.9
0.1 0.4 0.9
0.2 0.4 0.9
0.3 0.4 0.9
0.4 0.4 0.9
0.5 0.4 0.9
0.6 0.4 0.9
0.7 0.4 0.9
0.8 0.4 0.9
0.9 0.4 0.9
1 0.4 0.9
1.1 0.4 0.9
1.2 0.4 0.9
1.3 0.4 0.9
1.4 0.4 0.9
1.5 0.4 0.9
1.6 0.4 0.9
1.7 0.4 0.9
1.8 0.4 0.9
1.9 0.4 0.9
-0.1 0.5 0.9
0 0.5 0.9
0.1 0.5 0.9
0.2 0.5 0.9
0.3 0.5 0.9
0.4 0.5 0.9
0.5 0.5 0.9
0.6 0.5 0.9
0.7 0.5 0.9
0.8 0.5 0.9
0.9 0.5 0.9
1 0.5 0.9
1.1 0.5 0.9
1.2 0.5 0.9
1.3 0.5 0.9
1.4 0.5 0.9
1.5 0.5 0.9
1.6 0.5 0.9
1.7 0.5 0.9
1.8 0.5 0.9
1.9 0.5 0.9
-0.1 0.6 0.9
0 0.6 0.9
0.1 0.6 0.9
0.2 0.6 0.9
0.3 0.6 0.9
0.4 0.6 0.9
0.5 0.6 0.9
0.6 0.6 0.9
0.7 0.6 0.9
0.8 0.6 0.9
0.9 0.6 0.9
1 0.6 0.9
1.1 0.6 0.9
1.2 0.6 0.9
1.3 0.6 0.9
1.4 0.6 0.9
1.5 0.6 0.9
1.6 0.6 0.9
1.7 0.6 0.9
1.8 0.6 0.9
1.9 0.6 0.9
-0.1 0.7 0.9
0 0.7 0.9
0.1 0.7 0.9
0.2 0.7 0.9
0.3 0.7 0.9
0.4 0.7 0.9
0.5 0.7 0.9
0.6 0.7 0.9
0.7 0.7 0.9
0.8 0.7 0.9
0.9 0.7 0.9
1 0.7 0.9
1.1 0.7 0.9
1.2 0.7 0.9
1.3 0.7 0.9
1.4 0.7 0.9
1.5 0.7 0.9
1.6 0.7 0.9
1.7 0.7 0.9
1.8 0.7 0.9
1.9 0.7 0.9
-0.1 0.8 0.9
0 0.8 0.9
0.1 0.8 0.9
0.2 0.8 0.9
0.3 0.8 0.9
0.4 0.8 0.9
0.5 0.8 0.9
0.6 0.8 0.9
0.7 0.8 0.9
0.8 0.8 0.9
0.9 0.8 0.9
1 0.8 0.9
1.1 0.8 0.9
1.2 0.8 0.9
1.3 0.8 0.9
1.4 0.8 0.9
1.5 0.8 0.9
1.6 0.8 0.9
1.7 0.8 0.9
1.8 0.8 0.9
1.9 0.8 0.9
-0.1 0.9 0.9
0 0.9 0.9
0.1 0.9 0.9
0.2 0.9 0.9
0.3 0.9 0.9
0.4 0.9 0.9
0.5 0.9 0.9
0.6 0.9 0.9
0.7 0.9 0.9
0.8 0.9 0.9
0.9 0.9 0.9
1 0.9 0.9
1.1 0.9 0.9
1.2 0.9 0.9
1.3 0.9 0.9
1.4 0.9 0.9
1.5 0.9 0.9
1.6 0.9 0.9
1.7 0.9 0.9
1.8 0.9 0.9
1.9 0.9 0.9
-0.1 1 0.9
0 1 0.9
0.1 1 0.9
0.2 1 0.9
0.3 1 0.9
0.4 1 0.9
0.5 1 0.9
0.6 1 0.9
0.7 1 0.9
0.8 1 0.9
0.9 1 0.9
1 1 0.9
1.1 1 0.9
1.2 1 0.9
1.3 1 0.9
1.4 1 0.9
1.5 1 0.9
1.6 1 0.9
1.7 1 0.9
1.8 1 0.9
1.9 1 0.9
-0.1 1.1 0.9
0 1.1 0.9
0.1 1.1 0.9
0.2 1.1 0.9
0.3 1.1 0.9
0.4 1.1 0.9
0.5 1.1 0.9
0.6 1.1 0.9
0.7 1.1 0.9
0.8 1.1 0.9
0.9 1.1 0.9
1 1.1 0.9
1.1 1.1 0.9
1.2 1.1 0.9
1.3 1.1 0.9
1.4 1.1 0.9
1.5 1.1 0.9
1.6 1.1 0.9
1.7 1.1 0.9
1.8 1.1 0.9
1.9 1.1 0.9
-0.1 1.2 0.9
0 1.2 0.9
0.1 1.2 0.9
0.2 1.2 0.9
0.3 1.2 0.9
0.4 1.2 0.9
0.5 1.2 0.9
0.6 1.2 0.9
0.7 1.2 0.9
0.8 1.2 0.9
0.9 1.2 0.9
1 1.2 0.9
1.1 1.2 0.9
1.2 1.2 0.9
1.3 1.2 0.9
1.4 1.2 0.9
1.5 1.2 0.9
1.6 1.2 0.9
1.7 1.2 0.9
1.8 1.2 0.9
1.9 1.2 0.9
-0.1 1.3 0.9
0 1.3 0.9
0.1 1.3 0.9
0.2 1.3 0.9
0.3 1.3 0.9
0.4 1.3 0.9
0.5 1.3 0.9
0.6 1.3 0.9
0.7 1.3 0.9
0.8 1.3 0.9
0.9 1.3 0.9
1 1.3 0.9
1.1 1.3 0.9
1.2 1.3 0.9
1.3 1.3 0.9
1.4 1.3 0.9
1.5 1.3 0.9
1.6 1.3 0.9
1.7 1.3 0.9
1.8 1.3 0.9
1.9 1.3 0.9
-0.1 1.4 0.9
0 1.4 0.9
0.1 1.4 0.9
0.2 1.4 0.9
0.3 1.4 0.9
0.4 1.4 0.9
0.5 1.4 0.9
0.6 1.4 0.9
0.7 1.4 0.9
0.8 1.4 0.9
0.9 1.4 0.9
1 1.4 0.9
1.1 1.4 0.9
1.2 1.4 0.9
1.3 1.4 0.9
1.4 1.4 0.9
1.5 1.4 0.9
1.6 1.4 0.9
1.7 1.4 0.9
1.8 1.4 0.9
1.9 1.4 0.9
-0.1 1.5 0.9
0 1.5 0.9
0.1 1.5 0.9
0.2 1.5 0.9
0.3 1.5 0.9
0.4 1.5 0.9
0.5 1.5 0.9
0.6 1.5 0.9
0.7 1.5 0.9
0.8 1.5 0.9
0.9 1.5 0.9
1 1.5 0.9
1.1 1.5 0.9
1.2 1.5 0.9
1.3 1.5 0.9
1.4 1.5 0.9
1.5 1.5 0.9
1.6 1.5 0.9
1.7 1.5 0.9
1.8 1.5 0.9
1.9 1.5 0.9
-0.1 1.6 0.9
0 1.6 0.9
0.1 1.6 0.9
0.2 1.6 0.9
0.3 1.6 0.9
0.4 1.6 0.9
0.5 1.6 0.9
0.6 1.6 0.9
0.7 1.6 0.9
0.8 1.6 0.9
0.9 1.6 0.9
1 1.6 0.9
1.1 1.6 0.9
1.2 1.6 0.9
1.3 1.6 0.9
1.4 1.6 0.9
1.5 1.6 0.9
1.6 1.6 0.9
1.7 1.6 0.9
1.8 1.6 0.9
1.9 1.6 0.9
-0.1 1.7 0.9
0 1.7 0.9
0.1 1.7 0.9
0.2 1.7 0.9
0.3 1.7 0.9
0.4 1.7 0.9
0.5 1.7 0.9
0.6 1.7 0.9
0.7 1.7 0.9
0.8 1.7 0.9
0.9 1.7 0.9
1 1.7 0.9
1.1 1.7 0.9
1.2 1.7 0.9
1.3 1.7 0.9
1.4 1.7 0.9
1.5 1.7 0.9
1.6 1.7 0.9
1.7 1.7 0.9
1.8 1.7 0.9
1.9 1.7 0.9
-0.1 1.8 0.9
0 1.8 0.9
0.1 1.8 0.9
0.2 1.8 0.9
0.3 1.8 0.9
0.4 1.8 0.9
0.5 1.8 0.9
0.6 1.8 0.9
0.7 1.8 0.9
0.8 1.8 0.9
0.9 1.8 0.9
1 1.8 0.9
1.1 1.8 0.9
1.2 1.8 0.9
1.3 1.8 0.9
1.4 1.8 0.9
1.5 1.8 0.9
1.6 1.8 0.9
1.7 1.8 0.9
1.8 1.8 0.9
1.9 1.8 0.9
-0.1 1.9 0.9
0 1.9 0.9
0.1 1.9 0.9
0.2 1.9 0.9
0.3 1.9 0.9
0.4 1.9 0.9
0.5 1.9 0.9
0.6 1.9 0.9
0.7 1.9 0.9
0.8 1.9 0.9
0.9 1.9 0.9
1 1.9 0.9
1.1 1.9 0.9
1.2 1.9 0.9
1.3 1.9 0.9
1.4 1.9 0.9
1.5 1.9 0.9
1.6 1.9 0.9
1.7 1.9 0.9
1.8 1.9 0.9
1.9 1.9 0.9
-0.1 -0.1 1
0 -0.1 1
0.1 -0.1 1
0.2 -0.1 1
0.3 -0.1 1
0.4 -0.1 1
0.5 -0.1 1
0.6 -0.1 1
0.7 -0.1 1
0.8 -0.1 1
0.9 -0.1 1
1 -0.1 1
1.1 -0.1 1
1.2 -0.1 1
1.3 -0.1 1
1.4 -0.1 1
1.5 -0.1 1
1.6 -0.1 1
1.7 -0.1 1
1.8 -0.1 1
1.9 -0.1 1
-0.1 0 1
0 0 1
0.1 0 1
0.2 0 1
0.3 0 1
0.4 0 1
0.5 0 1
0.6 0 1
0.7 0 1
0.8 0 1
0.9 0 1
1 0 1
1.1 0 1
1.2 0 1
1.3 0 1
1.4 0 1
1.5 0 1
1.6 0 1
1.7 0 1
1.8 0 1
1.9 0 1
-0.1 0.1 1
0 0.1 1
0.1 0.1 1
0.2 0.1 1
0.3 0.1 1
0.4 0.1 1
0.5 0.1 1
0.6 0.1 1
0.7 0.1 1
0.8 0.1 1
0.9 0.1 1
1 0.1 1
1.1 0.1 1
1.2 0.1 1
1.3 0.1 1
1.4 0.1 1
1.5 0.1 1
1.6 0.1 1
1.7 0.1 1
1.8 0.1 1
1.9 0.1 1
-0.1 0.2 1
0 0.2 1
0.1 0.2 1
0.2 0.2 1
0.3 0.2 1
0.4 0.2 1
0.5 0.2 1
0.6 0.2 1
0.7 0.2 1
0.8 0.2 1
0.9 0.2 1
1 0.2 1
1.1 0.2 1
1.2 0.2 1
1.3 0.2 1
1.4 0.2 1
1.5 0.2 1
1.6 0.2 1
1.7 0.2 1
1.8 0.2 1
1.9 0.2 1
-0.1 0.3 1
0 0.3 1
0.1 0.3 1
0.2 0.3 1
0.3 0.3 1
0.4 0.3 1
0.5 0.3 1
0.6 0.3 1
0.7 0.3 1
0.8 0.3 1
0.9 0.3 1
1 0.3 1
1.1 0.3 1
1.2 0.3 1
1.3 0.3 1
1.4 0.3 1
1.5 0.3 1
1.6 0.3 1
1.7 0.3 1
1.8 0.3 1
1.9 0.3 1
-0.1 0.4 1
0 0.4 1
0.1 0.4 1
0.2 0.4 1
0.3 0.4 1
0.4 0.4 1
0.5 0.4 1
0.6 0.4 1
0.7 0.4 1
0.8 0.4 1
0.9 0.4 1
1 0.4 1
1.1 0.4 1
1.2 0.4 1
1.3 0.4 1
1.4 0.4 1
1.5 0.4 1
1.6 0.4 1
1.7 0.4 1
1.8 0.4 1
1.9 0.4 1
-0.1 0.5 1
0 0.5 1
0.1 0.5 1
0.2 0.5 1
0.3 0.5 1
0.4 0.5 1
0.5 0.5 1
0.6 0.5 1
0.7 0.5 1
0.8 0.5 1
0.9 0.5 1
1 0.5 1
1.1 0.5 1
1.2 0.5 1
1.3 0.5 1
1.4 0.5 1
1.5 0.5 1
1.6 0.5 1
1.7 0.5 1
1.8 0.5 1
1.9 0.5 1
-0.1 0.6 1
0 0.6 1
0.1 0.6 1
0.2 0.6 1
0.3 0.6 1
0.4 0.6 1
0.5 0.6 1
0.6 0.6 1
0.7 0.6 1
0.8 0.6 1
0.9 0.6 1
1 0.6 1
1.1 0.6 1
1.2 0.6 1
1.3 0.6 1
1.4 0.6 1
1.5 0.6 1
1.6 0.6 1
1.7 0.6 1
1.8 0.6 1
1.9 0.6 1
-0.1 0.7 1
0 0.7 1
0.1 0.7 1
0.2 0.7 1
0.3 0.7 1
0.4 0.7 1
0.5 0.7 1
0.6 0.7 1
0.7 0.7 1
0.8 0.7 1
0.9 0.7 1
1 0.7 1
1.1 0.7 1
1.2 0.7 1
1.3 0.7 1
1.4 0.7 1
1.5 0.7 1
1.6 0.7 1
1.7 0.7 1
1.8 0.7 1
1.9 0.7 1
-0.1 0.8 1
0 0.8 1
0.1 0.8 1
0.2 0.8 1
0.3 0.8 1
0.4 0.8 1
0.5 0.8 1
0.6 0.8 1
0.7 0.8 1
0.8 0.8 1
0.9 0.8 1
1 0.8 1
1.1 0.8 1
1.2 0.8 1
1.3 0.8 1
1.4 0.8 1
1.5 0.8 1
1.6 0.8 1
1.7 0.8 1
1.8 0.8 1
1.9 0.8 1
-0.1 0.9 1
0 0.9 1
0.1 0.9 1
0.2 0.9 1
0.3 0.9 1
0.4 0.9 1
0.5 0.9 1
0.6 0.9 1
0.7 0.9 1
0.8 0.9 1
0.9 0.9 1
1 0.9 1
1.1 0.9 1
1.2 0.9 1
1.3 0.9 1
1.4 0.9 1
1.5 0.9 1
1.6 0.9 1
1.7 0.9 1
1.8 0.9 1
1.9 0.9 1
-0.1 1 1
0 1 1
0.1 1 1
0.2 1 1
0.3 1 1
0.4 1 1
0.5 1 1
0.6 1 1
0.7 1 1
0.8 1 1
0.9 1 1
1 1 1
1.1 1 1
1.2 1 1
1.3 1 1
1.4 1 1
1.5 1 1
1.6 1 1
1.7 1 1
1.8 1 1
1.9 1 1
-0.1 1.1 1
0 1.1 1
0.1 1.1 1
0.2 1.1 1
0.3 1.1 1
0.4 1.1 1
0.5 1.1 1
0.6 1.1 1
0.7 1.1 1
0.8 1.1 1
0.9 1.1 1
1 1.1 1
1.1 1.1 1
1.2 1.1 1
1.3 1.1 1
1.4 1.1 1
1.5 1.1 1
1.6 1.1 1
1.7 1.1 1
1.8 1.1 1
1.9 1.1 1
-0.1 1.2 1
0 1.2 1
0.1 1.2 1
0.2 1.2 1
0.3 1.2 1
0.4 1.2 1
0.5 1.2 1
0.6 1.2 1
0.7 1.2 1
0.8 1.2 1
0.9 1.2 1
1 1.2 1
1.1 1.2 1
1.2 1.2 1
1.3 1.2 1
1.4 1.2 1
1.5 1.2 1
1.6 1.2 1
1.7 1.2 1
1.8 1.2 1
1.9 1.2 1
-0.1 1.3 1
0 1.3 1
0.1 1.3 1
0.2 1.3 1
0.3 1.3 1
0.4 1.3 1
0.5 1.3 1
0.6 1.3 1
0.7 1.3 1
0.8 1.3 1
0.9 1.3 1
1 1.3 1
1.1 1.3 1
1.2 1.3 1
1.3 1.3 1
1.4 1.3 1
1.5 1.3 1
1.6 1.3 1
1.7 1.3 1
1.8 1.3 1
1.9 1.3 1
-0.1 1.4 1
0 1.4 1
0.1 1.4 1
0.2 1.4 1
0.3 1.4 1
0.4 1.4 1
0.5 1.4 1
0.6 1.4 1
0.7 1.4 1
0.8 1.4 1
0.9 1.4 1
1 1.4 1
1.1 1.4 1
1.2 1.4 1
1.3 1.4 1
1.4 1.4 1
1.5 1.4 1
1.6 1.4 1
1.7 1.4 1
1.8 1.4 1
1.9 1.4 1
-0.1 1.5 1
0 1.5 1
0.1 1.5 1
0.2 1.5 1
0.3 1.5 1
0.4 1.5 1
0.5 1.5 1
0.6 1.5 1
0.7 1.5 1
0.8 1.5 1
0.9 1.5 1
1 1.5 1
1.1 1.5 1
1.2 1.5 1
1.3 1.5 1
1.4 1.5 1
1.5 1.5 1
1.6 1.5 1
1.7 1.5 1
1.8 1.5 1
1.9 1.5 1
-0.1 1.6 1
0 1.6 1
0.1 1.6 1
0.2 1.6 1
0.3 1.6 1
0.4 1.6 1
0.5 1.6 1
0.6 1.6 1
0.7 1.6 1
0.8 1.6 1
0.9 1.6 1
1 1.6 1
1.1 1.6 1
1.2 1.6 1
1.3 1.6 1
1.4 1.6 1
1.5 1.6 1
1.6 1.6 1
1.7 1.6 1
1.8 1.6 1
1.9 1.6 1
-0.1 1.7 1
0 1.7 1
0.1 1.7 1
0.2 1.7 1
0.3 1.7 1
0.4 1.7 1
0.5 1.7 1
0.6 1.7 1
0.7 1.7 1
0.8 1.7 1
0.9 1.7 1
1 1.7 1
1.1 1.7 1
1.2 1.7 1
1.3 1.7 1
1.4 1.7 1
1.5 1.7 1
1.6 1.7 1
1.7 1.7 1
1.8 1.7 1
1.9 1.7 1
-0.1 1.8 1
0 1.8 1
0.1 1.8 1
0.2 1.8 1
0.3 1.8 1
0.4 1.8 1
0.5 1.8 1
0.6 1.8 1
0.7 1.8 1
0.8 1.8 1
0.9 1.8 1
1 1.8 1
1.1 1.8 1
1.2 1.8 1
1.3 1.8 1
1.4 1.8 1
1.5 1.8 1
1.6 1.8 1
1.7 1.8 1
1.8 1.8 1
1.9 1.8 1
-0.1 1.9 1
0 1.9 1
0.1 1.9 1
0.2 1.9 1
0.3 1.9 1
0.4 1.9 1
0.5 1.9 1
0.6 1.9 1
0.7 1.9 1
0.8 1.9 1
0.9 1.9 1
1 1.9 1
1.1 1.9 1
1.2 1.9 1
1.3 1.9 1
1.4 1.9 1
1.5 1.9 1
1.6 1.9 1
1.7 1.9 1
1.8 1.9 1
1.9 1.9 1
-0.1 -0.1 1.1
0 -0.1 1.1
0.1 -0.1 1.1
0.2 -0.1 1.1
0.3 -0.1 1.1
0.4 -0.1 1.1
0.5 -0.1 1.1
0.6 -0.1 1.1
0.7 -0.1 1.1
0.8 -0.1 1.1
0.9 -0.1 1.1
1 -0.1 1.1
1.1 -0.1 1.1
1.2 -0.1 1.1
1.3 -0.1 1.1
1.4 -0.1 1.1
1.5 -0.1 1.1
1.6 -0.1 1.1
1.7 -0.1 1.1
1.8 -0.1 1.1
1.9 -0.1 1.1
-0.1 0 1.1
0 0 1.1
0.1 0 1.1
0.2 0 1.1
0.3 0 1.1
0.4 0 1.1
0.5 0 1.1
0.6 0 1.1
0.7 0 1.1
0.8 0 1.1
0.9 0 1.1
1 0 1.1
1.1 0 1.1
1.2 0 1.1
1.3 0 1.1
1.4 0 1.1
1.5 0 1.1
[...]
CELL_DATA 4000
VECTORS velocity double 
3.63558e-05 -0.00010799 0.00343403
6.28863e-05 -0.000111239 0.00509348
6.0506e-05 -0.000114789 0.00547837
4.26849e-05 -0.00012063 0.00558741
1.72685e-05 -0.000124833 0.00562358
-1.21551e-05 -0.00012755 0.00562393
-4.33458e-05 -0.000129767 0.00559499
-7.42054e-05 -0.00013207 0.00553972
-0.000102542 -0.000134557 0.00546084
-0.00012613 -0.000137009 0.00536141
-0.000142925 -0.000139042 0.00524536
-0.000151435 -0.000140138 0.00511814
-0.000151112 -0.000139679 0.00498735
-0.000142875 -0.000137013 0.00486247
-0.00012963 -0.000131639 0.00475449
-0.000116597 -0.000123359 0.0046748
-0.000111049 -0.000112766 0.0046313
-0.000118754 -0.000101759 0.00459993
-0.000130222 -9.35372e-05 0.00438734
-6.51108e-05 -7.6646e-05 0.00303097
5.74123e-05 -0.000373799 0.00518312
8.31519e-05 -0.000452367 0.00796807
7.24227e-05 -0.000481495 0.00860596
4.45394e-05 -0.000502521 0.0087612
8.04875e-06 -0.000514915 0.00880632
-3.39041e-05 -0.000521819 0.00880181
-7.92081e-05 -0.000526593 0.00875168
-0.000125376 -0.00053104 0.00865726
-0.000169398 -0.000535588 0.00852206
-0.000207977 -0.000539811 0.00835096
-0.000237806 -0.000542758 0.00815054
-0.00025604 -0.000543098 0.00793007
-0.000260878 -0.00053928 0.0077023
-0.000252424 -0.000529659 0.00748366
-0.0002335 -0.000512927 0.00729425
-0.000210634 -0.000488493 0.00715773
-0.000194397 -0.000457429 0.00709575
-0.000196244 -0.000423644 0.00707518
-0.000205645 -0.000392052 0.00675527
-0.000102823 -0.000317335 0.00455089
4.11287e-05 -0.000825642 0.0055939
4.64282e-05 -0.00105352 0.00839879
2.06935e-05 -0.00113063 0.008964
-1.62281e-05 -0.00117625 0.00908068
-5.83016e-05 -0.00120074 0.00911658
-0.000104555 -0.00121315 0.00911095
-0.000153936 -0.00122055 0.00905526
-0.000204163 -0.00122655 0.00894633
-0.000251912 -0.00123213 0.00878679
-0.00029323 -0.00123671 0.00858182
-0.000323944 -0.00123872 0.00833883
-0.000340234 -0.00123589 0.00806861
-0.000339267 -0.00122545 0.00778652
-0.000320391 -0.00120457 0.00751299
-0.000286131 -0.00117083 0.00727431
-0.000243655 -0.00112316 0.00710488
-0.000205929 -0.00106296 0.00704575
-0.000189659 -0.000996195 0.00709403
-0.000191729 -0.000926912 0.0069279
-9.58645e-05 -0.00074104 0.00485028
1.38733e-06 -0.00146277 0.00548718
-3.01799e-05 -0.00192087 0.00777962
-7.80548e-05 -0.00206969 0.00809553
-0.000125605 -0.0021499 0.00812944
-0.000172059 -0.00219088 0.00814902
-0.000219986 -0.00221049 0.00814452
-0.000270002 -0.00222087 0.00808862
-0.000320247 -0.00222804 0.00797241
-0.000367125 -0.00223381 0.00779723
-0.000406006 -0.0022375 0.00756805
-0.00043174 -0.00223686 0.00729253
-0.000439342 -0.00222852 0.00698229
-0.000424873 -0.00220833 0.00665485
-0.00038673 -0.00217193 0.00633429
-0.000327254 -0.0021156 0.00605285
-0.000254249 -0.00203736 0.00585596
-0.000183662 -0.00193911 0.00580903
-0.000138997 -0.00182842 0.0059645
-0.000131852 -0.00170478 0.00611032
-6.5926e-05 -0.00134261 0.00465493
-5.88137e-05 -0.00227775 0.00486776
-0.000143253 -0.00305554 0.00620077
-0.000220857 -0.00330299 0.00611673
-0.000281189 -0.00342904 0.00602556
-0.000331389 -0.00349156 0.00601936
-0.00037904 -0.00352047 0.00601534
-0.000427079 -0.00353449 0.00596117
-0.000474375 -0.00354277 0.00584062
-0.000517133 -0.00354821 0.00565319
-0.000549925 -0.00355014 0.00540341
-0.000566435 -0.00354554 0.00509912
-0.000560279 -0.00352981 0.00475259
-0.000526124 -0.00349716 0.00438332
-0.000461214 -0.00344132 0.00401936
-0.000367337 -0.00335678 0.00369922
-0.000253345 -0.00324039 0.00348071
-0.000138446 -0.00309399 0.00345831
-5.54136e-05 -0.00292669 0.00376219
-3.69459e-05 -0.00272745 0.00436304
-1.8473e-05 -0.00211354 0.00396138
-0.000140809 -0.00324459 0.0035471
-0.000295637 -0.00443675 0.00337575
-0.000411569 -0.00481327 0.00270826
-0.00048732 -0.00499753 0.00243527
-0.000540843 -0.00508706 0.00238695
-0.000586339 -0.00512758 0.0023797
-0.000629866 -0.00514609 0.00232802
-0.000671319 -0.00515566 0.00220612
-0.000706799 -0.00516063 0.00201086
-0.000730052 -0.00516033 0.00174583
-0.000733399 -0.005151 0.00141864
-0.000708743 -0.00512663 0.00104231
-0.000648905 -0.00507947 0.000638091
-0.000549551 -0.00500093 0.000238029
-0.000411655 -0.00488303 -0.000112311
-0.000244843 -0.00472083 -0.000341498
-7.25949e-05 -0.0045158 -0.000318941
6.10075e-05 -0.00427728 0.000187175
9.41e-05 -0.00397716 0.00141418
4.705e-05 -0.00302956 0.00258867
-0.000247192 -0.00430541 0.00129216
-0.000491771 -0.00600186 -0.0010641
-0.000655319 -0.00653875 -0.00254396
-0.000749184 -0.00679345 -0.00307347
-0.000805374 -0.00691517 -0.00318767
-0.000846563 -0.00696956 -0.00320486
-0.000882832 -0.00699359 -0.00325435
-0.000915448 -0.00700493 -0.0033748
-0.000940451 -0.00700962 -0.00357279
-0.000950735 -0.00700718 -0.00384617
-0.000937119 -0.00699313 -0.00418801
-0.000889431 -0.00695995 -0.00458461
-0.00079819 -0.00689768 -0.00501303
-0.000656796 -0.00679478 -0.00543752
-0.000464851 -0.00664015 -0.00580481
-0.000232598 -0.00642599 -0.00602734
1.19967e-05 -0.00615235 -0.00593047
0.000210299 -0.00582746 -0.00515005
0.000263334 -0.0053981 -0.0030836
0.000131667 -0.00403673 0.000315512
-0.000378235 -0.00535823 -0.00212014
-0.000732127 -0.00762939 -0.00747995
-0.000952419 -0.00835519 -0.0100518
-0.00106678 -0.0086907 -0.0109319
-0.00112483 -0.0088486 -0.0111433
-0.00115957 -0.00891845 -0.0111803
-0.00118593 -0.00894879 -0.0112292
-0.0012069 -0.00896252 -0.0113457
-0.00121863 -0.00896762 -0.0115408
-0.00121315 -0.00896395 -0.0118141
-0.00117967 -0.00894644 -0.0121599
-0.00110561 -0.00890606 -0.0125642
-0.000978455 -0.00883039 -0.0130022
-0.000788638 -0.0087045 -0.0134343
-0.000533384 -0.00851308 -0.0137996
-0.000222851 -0.00824429 -0.0139917
0.000110134 -0.00789488 -0.0137818
0.000389519 -0.0074698 -0.0126378
0.000469378 -0.00688206 -0.00947423
0.000234689 -0.00504002 -0.00307216
-0.000531024 -0.00624912 -0.00686826
-0.00101124 -0.00912594 -0.0161602
-0.00129577 -0.0100607 -0.0201445
-0.00143216 -0.0104825 -0.0214853
-0.00149088 -0.0106776 -0.0218314
-0.00151706 -0.0107632 -0.0219005
-0.00153121 -0.0108002 -0.0219515
-0.00153838 -0.010817 -0.0220617
-0.00153498 -0.0108236 -0.0222482
-0.00151226 -0.0108206 -0.0225123
-0.00145773 -0.0108024 -0.0228492
-0.00135616 -0.0107588 -0.0232455
-0.00119143 -0.0106748 -0.023675
-0.000949777 -0.0105318 -0.024094
-0.000624928 -0.0103094 -0.0244334
-0.000225327 -0.00998951 -0.0245657
0.00021126 -0.00956354 -0.0241966
0.000588874 -0.00902884 -0.0225853
0.000704386 -0.00825692 -0.018031
0.000352193 -0.00589526 -0.00774657
-0.000697181 -0.00677032 -0.0130308
-0.00131387 -0.0102202 -0.0272253
-0.00166605 -0.0113675 -0.0329629
-0.00182419 -0.0118725 -0.0348829
-0.00188211 -0.0121013 -0.0354045
-0.00189808 -0.0122005 -0.0355198
-0.00189858 -0.0122435 -0.0355765
-0.00189099 -0.0122637 -0.0356785
-0.00187227 -0.0122734 -0.035851
-0.00183303 -0.0122737 -0.0360969
-0.00175922 -0.0122592 -0.0364123
-0.00163282 -0.0122189 -0.0367843
-0.00143358 -0.012136 -0.0371858
-0.00114254 -0.0119879 -0.0375697
-0.000747655 -0.0117482 -0.0378583
-0.000253968 -0.011391 -0.0378999
0.000297674 -0.0108981 -0.0373227
0.000788874 -0.0102543 -0.0351319
0.000950859 -0.00928123 -0.0288739
0.000475429 -0.00640762 -0.0137863
-0.000861265 -0.00667065 -0.0205197
-0.0016116 -0.0105712 -0.0405185
-0.00202758 -0.0119088 -0.0483335
-0.00220413 -0.0124809 -0.0509466
-0.00225919 -0.0127327 -0.0516822
-0.00226414 -0.0128399 -0.0518569
-0.00225109 -0.0128866 -0.0519234
-0.00222975 -0.0129102 -0.0520164
-0.00219788 -0.0129242 -0.0521704
-0.00214588 -0.012931 -0.0523909
-0.00205855 -0.0129258 -0.0526744
-0.00191538 -0.0128978 -0.0530087
-0.00169183 -0.0128293 -0.053366
-0.00136249 -0.0126949 -0.053697
-0.000907536 -0.012462 -0.0539153
-0.000325006 -0.0120946 -0.0538422
0.000343794 -0.0115611 -0.0530135
0.00095854 -0.010825 -0.0501361
0.00117898 -0.00965113 -0.0418718
0.000589488 -0.00634074 -0.0211149
-0.000999087 -0.00568486 -0.0290154
-0.00185977 -0.00979856 -0.0554954
-0.00232411 -0.0112675 -0.0656397
-0.00251099 -0.0118725 -0.069033
-0.00256031 -0.0121279 -0.0700094
-0.00255454 -0.0122335 -0.0702515
-0.0025302 -0.0122799 -0.0703308
-0.00249874 -0.0123057 -0.0704155
-0.00245885 -0.012325 -0.0705489
-0.00240146 -0.0123411 -0.07074
-0.00231103 -0.0123508 -0.0709861
-0.00216545 -0.0123449 -0.0712756
-0.00193649 -0.012307 -0.0715816
-0.00159179 -0.0122106 -0.0718535
-0.00110149 -0.0120186 -0.071997
-0.000452519 -0.0116845 -0.0718034
0.000319149 -0.0111583 -0.070702
0.00105547 -0.010372 -0.0670577
0.00134565 -0.00902664 -0.0565415
0.000672826 -0.00544339 -0.0294413
-0.00107636 -0.00358764 -0.0379272
-0.00199446 -0.00754439 -0.0711435
-0.00247572 -0.00903781 -0.0837165
-0.00265869 -0.00961957 -0.0879192
-0.00269841 -0.00984946 -0.0891402
-0.00268357 -0.00993981 -0.0894475
-0.0026525 -0.00997997 -0.0895387
-0.00261731 -0.0100057 -0.089616
-0.00257757 -0.0100301 -0.0897302
-0.00252554 -0.010057 -0.0898928
-0.00244667 -0.0100857 -0.090103
-0.00231915 -0.0101104 -0.090351
-0.00211254 -0.0101185 -0.0906126
-0.00178875 -0.0100864 -0.0908386
-0.00130669 -0.00997594 -0.0909292
-0.000637677 -0.00973297 -0.0906431
0.000196316 -0.00928655 -0.089291
0.0010306 -0.00852624 -0.0848607
0.00139667 -0.00708301 -0.071974
0.000698337 -0.00349881 -0.0382238
-0.00104787 -0.000277144 -0.0463982
-0.00193168 -0.00357101 -0.085939
-0.00237808 -0.00492472 -0.100766
-0.00253565 -0.00540352 -0.105697
-0.00256108 -0.00557026 -0.107125
-0.0025404 -0.00562919 -0.107481
-0.00250941 -0.00565614 -0.107578
-0.00247926 -0.00567847 -0.107648
-0.00245025 -0.00570592 -0.107746
-0.00241651 -0.0057428 -0.107887
-0.00236643 -0.00579101 -0.108071
-0.00228085 -0.00585001 -0.108293
-0.00213081 -0.00591379 -0.108533
-0.00187547 -0.00596644 -0.108751
-0.0014647 -0.00597618 -0.108844
-0.000851143 -0.00588788 -0.108542
-3.27851e-05 -0.00561404 -0.107031
0.000839845 -0.00499529 -0.101913
0.00127314 -0.00359076 -0.0867806
0.000636571 -0.000397816 -0.0466681
-0.000856819 0.00411909 -0.0532778
-0.00156805 0.00210824 -0.0976461
-0.0019062 0.00111354 -0.11405
-0.00201062 0.000833622 -0.119421
-0.00201727 0.000770044 -0.120942
-0.00199606 0.000758075 -0.121306
-0.00197419 0.000750836 -0.121395
-0.00195961 0.000735819 -0.121456
-0.00195294 0.000708744 -0.121546
-0.00195079 0.000665989 -0.121676
-0.00194609 0.000602671 -0.12185
-0.00192548 0.000513774 -0.12207
-0.00186601 0.000396181 -0.122328
-0.00173106 0.00025328 -0.122595
-0.0014676 0.000102003 -0.122778
-0.00101333 -1.51569e-05 -0.122591
-0.000334435 -8.67666e-06 -0.121117
0.000461902 0.000321649 -0.11563
0.000921604 0.00147753 -0.0988517
0.000460802 0.00376639 -0.0536843
-0.000441561 0.00911102 -0.0568535
-0.000798756 0.00905398 -0.102408
-0.000940466 0.00867631 -0.118623
-0.000962258 0.00868973 -0.123706
-0.000947545 0.00876044 -0.125057
-0.000933456 0.00880514 -0.125345
-0.000931612 0.00882167 -0.125404
-0.000944418 0.00881751 -0.125453
-0.000971799 0.00879563 -0.125538
-0.00101322 0.00875379 -0.125668
-0.00106683 0.00868527 -0.12585
-0.0011277 0.00857999 -0.126094
-0.00118397 0.0084259 -0.126407
-0.00121186 0.00821117 -0.12678
-0.00116866 0.00793062 -0.127152
-0.000990975 0.00759795 -0.127256
-0.000617243 0.00727738 -0.126171
-8.03004e-05 0.00717427 -0.12108
0.000308076 0.00780068 -0.104348
0.000154038 0.00857574 -0.0575768
0.000261374 0.013686 -0.0531748
0.000456805 0.016146 -0.0914196
0.000586921 0.0166102 -0.103625
0.00065977 0.0169682 -0.106988
0.000684567 0.017177 -0.107706
0.000673535 0.0172757 -0.107782
0.000636386 0.0173155 -0.107776
0.000578216 0.0173243 -0.107807
0.000500512 0.0173126 -0.107889
0.00040189 0.0172798 -0.108024
0.00027917 0.0172192 -0.108221
0.000128674 0.017118 -0.108496
-5.20937e-05 0.0169581 -0.108873
-0.000259824 0.0167154 -0.109374
-0.000478662 0.0163617 -0.109988
-0.000670816 0.0158718 -0.11055
-0.000775332 0.0152539 -0.110361
-0.000743366 0.0146508 -0.107129
-0.000611985 0.0144625 -0.0942553
-0.000305992 0.0131105 -0.0543076
0.00125672 0.0161466 -0.0294088
0.00214013 0.0212045 -0.0411486
0.0025469 0.0225303 -0.0427685
0.00267351 0.0231728 -0.0424915
0.00265985 0.0234761 -0.0420738
0.00257794 0.0236087 -0.0418227
0.00246046 0.0236649 -0.041726
0.00232075 0.0236865 -0.0417308
0.00216219 0.0236877 -0.0418036
0.00198298 0.0236704 -0.0419348
0.00177721 0.0236288 -0.0421309
0.00153479 0.0235514 -0.0424117
0.00124124 0.0234194 -0.0428107
0.000877151 0.0232049 -0.0433754
0.000420386 0.0228671 -0.044162
-0.000147713 0.0223503 -0.0451925
-0.000824179 0.0215984 -0.0463189
-0.00153084 0.0206261 -0.0468611
-0.00191836 0.0195274 -0.0445326
-0.000959182 0.015705 -0.0308338
0.00229284 0.0141559 0.0606978
0.00373128 0.0202411 0.111757
0.00423425 0.0218091 0.126961
0.00425715 0.0224527 0.131412
0.00408195 0.0227346 0.13282
0.00383553 0.0228563 0.133292
0.003568 0.022911 0.13344
0.0032968 0.0229368 0.133456
0.00302567 0.0229466 0.133404
0.00275192 0.022943 0.133301
0.00246839 0.0229227 0.133144
0.0021628 0.0228779 0.132919
0.00181462 0.0227954 0.132596
0.00139035 0.0226539 0.132126
0.000835883 0.0224191 0.131414
6.80552e-05 0.0220377 0.130277
-0.00101858 0.021436 0.128225
-0.0024326 0.0205432 0.123476
-0.00349686 0.0191238 0.108781
-0.00174843 0.0138962 0.0592937
0.00202984 0.00707797 0.389001
0.00319165 0.0101206 0.5283
0.00339231 0.0109046 0.552731
0.00315499 0.0112264 0.557487
0.00279127 0.0113673 0.558608
0.0024261 0.0114281 0.558921
0.002098 0.0114555 0.559008
0.00181267 0.0114684 0.559016
0.00156473 0.0114733 0.558986
0.00134531 0.0114715 0.558927
0.00114427 0.0114614 0.55884
0.00094973 0.0114389 0.55872
0.000744405 0.0113977 0.558553
0.000500063 0.0113269 0.558315
0.000167083 0.0112096 0.557947
-0.000343326 0.0110188 0.557302
-0.00116905 0.010718 0.555849
-0.00238113 0.0102716 0.550935
-0.00331972 0.00956192 0.526729
-0.00165986 0.00694808 0.38793
4.03277e-05 -2.17473e-05 0.00353717
7.56412e-05 -8.86393e-06 0.00528538
8.30907e-05 -5.55176e-06 0.00569448
7.22961e-05 -6.70437e-06 0.00581164
5.01931e-05 -8.25457e-06 0.00585354
2.05464e-05 -9.7961e-06 0.00585883
-1.40519e-05 -1.17599e-05 0.00583406
-5.11896e-05 -1.44172e-05 0.00578213
-8.84035e-05 -1.77763e-05 0.0057056
-0.000123109 -2.16912e-05 0.00560712
-0.000152729 -2.58304e-05 0.00549016
-0.000174841 -2.96635e-05 0.00535988
-0.000187574 -3.25559e-05 0.00522377
-0.000190376 -3.37597e-05 0.00509171
-0.000184527 -3.25509e-05 0.00497563
-0.000173537 -2.85137e-05 0.00488845
-0.000163101 -2.19521e-05 0.00483956
-0.000157612 -1.39882e-05 0.00480439
-0.000151812 -6.80509e-06 0.00457613
-7.59059e-05 3.96868e-06 0.00314686
6.44552e-05 -0.000143183 0.00545314
0.000107272 -0.000161421 0.00843621
0.000115 -0.000168151 0.00912276
0.000101232 -0.000175625 0.00929283
7.32183e-05 -0.000180524 0.00934697
3.43925e-05 -0.000183987 0.00934939
-1.2692e-05 -0.000187876 0.00930421
-6.52628e-05 -0.00019321 0.00921268
-0.000120187 -0.000200185 0.00907813
-0.000173852 -0.000208378 0.00890505
-0.00022234 -0.000216985 0.00869944
-0.000261725 -0.000224776 0.00847017
-0.00028851 -0.000230126 0.00823009
-0.000300702 -0.000231125 0.00799627
-0.000298786 -0.000225977 0.00779038
-0.000286661 -0.000213425 0.00763892
-0.000271811 -0.000193826 0.00756645
-0.000261931 -0.000170297 0.00753881
-0.00024694 -0.00014717 0.00718868
-0.00012347 -0.00010733 0.00481911
6.23362e-05 -0.000434593 0.00603656
9.73479e-05 -0.000538781 0.00909613
9.79593e-05 -0.000571913 0.00971849
7.9234e-05 -0.000592497 0.00985332
4.71968e-05 -0.000603358 0.0099009
4.03755e-06 -0.000609393 0.00990391
-4.83027e-05 -0.000615031 0.0098538
-0.000107145 -0.000622455 0.00974742
-0.000169001 -0.000632181 0.00958726
-0.00022973 -0.000643684 0.00937801
-0.000284623 -0.00065563 0.00912641
-0.000328697 -0.000665934 0.00884274
-0.000357231 -0.000671748 0.00854234
-0.000367134 -0.000669826 0.00824648
-0.000358078 -0.000656869 0.00798348
-0.000334119 -0.000630645 0.00779143
-0.000304886 -0.000591518 0.00771624
-0.000281768 -0.000544456 0.00775618
-0.000258552 -0.000495364 0.00755977
-0.000129276 -0.000388268 0.00527592
4.27736e-05 -0.000933648 0.00613777
5.77883e-05 -0.00119498 0.00873015
4.57312e-05 -0.00127399 0.0091067
2.03162e-05 -0.00131596 0.00916188
-1.55401e-05 -0.00133627 0.0091965
-6.18949e-05 -0.00134608 0.00920292
-0.000117719 -0.00135342 0.00915363
-0.000180507 -0.00136231 0.00903988
-0.000246547 -0.00137381 0.00886293
-0.000311069 -0.00138731 0.00862724
-0.000368445 -0.00140092 0.0083396
-0.000412431 -0.00141162 0.00801093
-0.000436993 -0.00141525 0.00765856
-0.000437615 -0.00140681 0.00730743
-0.000413176 -0.00138132 0.00699235
-0.000367993 -0.00133511 0.00676352
-0.000314174 -0.00126867 0.00669329
-0.000268936 -0.00118872 0.00683926
-0.000235849 -0.00110017 0.00696101
-0.000117925 -0.000868539 0.00527179
6.43207e-06 -0.00166857 0.00575959
-1.15609e-05 -0.00217752 0.0074317
-4.25737e-05 -0.00232679 0.00740851
-7.66396e-05 -0.00240039 0.00734188
-0.000116155 -0.00243471 0.00735479
-0.000164396 -0.00244997 0.0073645
-0.000221932 -0.00245934 0.00731821
-0.000286595 -0.00246915 0.00720018
-0.000354475 -0.00248138 0.00700996
-0.000420139 -0.00249539 0.00675144
-0.000476915 -0.00250878 0.00643128
-0.000517169 -0.00251747 0.00606083
-0.000533086 -0.00251575 0.00565914
-0.000518545 -0.00249668 0.00525511
-0.000471173 -0.00245304 0.00489036
-0.000395854 -0.0023796 0.00462861
-0.00030756 -0.00227631 0.00457416
-0.000231438 -0.00215181 0.00486735
-0.000186298 -0.00200529 0.00545521
-9.31492e-05 -0.00157316 0.00480071
-4.92912e-05 -0.00265026 0.00469607
-0.000115702 -0.00351541 0.00489059
-0.000173457 -0.00376504 0.00427914
-0.000218817 -0.0038825 0.0040333
-0.000261865 -0.0039363 0.00400846
-0.000310625 -0.00395921 0.00401805
-0.000367696 -0.00397111 0.00397577
-0.000431685 -0.0039815 0.00385652
-0.000498539 -0.00399347 0.00365739
-0.000562207 -0.00400652 0.00338124
-0.000614832 -0.0040177 0.00303422
-0.000647097 -0.00402184 0.00262795
-0.000649175 -0.00401147 0.002183
-0.000612748 -0.0039773 0.00173219
-0.000534064 -0.00390947 0.00132466
-0.000418054 -0.00380042 0.00103933
-0.000283591 -0.00364957 0.0010199
-0.000165996 -0.0034665 0.00151541
-0.000105973 -0.00323825 0.00274751
-5.29863e-05 -0.00251242 0.00366496
-0.000127975 -0.00385976 0.00268647
-0.000261097 -0.00520136 0.000697095
-0.000354689 -0.00558562 -0.000741158
-0.000414459 -0.00576042 -0.00124337
-0.000460952 -0.00583961 -0.00133012
-0.000508507 -0.00587275 -0.00132731
-0.000562632 -0.00588797 -0.00136584
-0.000622907 -0.00589873 -0.00148334
-0.000685326 -0.00590964 -0.0016861
-0.000743208 -0.00592043 -0.00197282
-0.000787508 -0.00592767 -0.00233829
-0.000806958 -0.00592502 -0.00277074
-0.000789279 -0.00590307 -0.00324835
-0.000723492 -0.00584975 -0.00373458
-0.000603768 -0.00575207 -0.00417231
-0.000435224 -0.00559943 -0.00446476
-0.000240823 -0.0053897 -0.00442005
-6.9124e-05 -0.00513258 -0.00364806
9.97097e-06 -0.00479395 -0.00154833
4.98549e-06 -0.00366918 0.00161636
-0.000231775 -0.00523349 -0.000533675
-0.00045141 -0.00717145 -0.00556673
-0.000590767 -0.00772695 -0.00812416
-0.000668212 -0.00797258 -0.00898085
-0.000718114 -0.00808293 -0.00916205
-0.00076265 -0.00812862 -0.00917625
-0.000811095 -0.00814811 -0.00921265
-0.00086444 -0.00815938 -0.00932568
-0.00091885 -0.00816884 -0.00952601
-0.000967111 -0.00817665 -0.0098143
-0.0009989 -0.00817898 -0.0101868
-0.00100079 -0.00816833 -0.0106319
-0.000957561 -0.00813323 -0.0111266
-0.000854999 -0.00805854 -0.0116309
-0.000684412 -0.00792725 -0.0120794
-0.000450276 -0.00772472 -0.0123549
-0.000180484 -0.00744597 -0.0122064
6.02215e-05 -0.00709874 -0.0110649
0.000163753 -0.0066169 -0.00782713
8.18764e-05 -0.00498487 -0.00159859
-0.000360645 -0.00664823 -0.00519648
-0.000686757 -0.00928494 -0.0142598
-0.000881426 -0.0100456 -0.0182754
-0.000979611 -0.0103731 -0.019603
-0.00103252 -0.0105186 -0.0199186
-0.0010722 -0.0105786 -0.0199632
-0.00111231 -0.0106031 -0.0200005
-0.00115562 -0.0106153 -0.0201066
-0.00119869 -0.0106234 -0.0202982
-0.00123386 -0.0106283 -0.0205779
-0.00124956 -0.010626 -0.0209432
-0.00123006 -0.0106078 -0.0213837
-0.0011568 -0.0105605 -0.0218754
-0.00101139 -0.0104654 -0.0223748