# vtk DataFile Version 2.0 
Visualization 
ASCII 
DATASET STRUCTURED_GRID 
DIMENSIONS 21 21 11
POINTS 4851 float
-0.1 -0.1 -0.1
0 -0.1 -0.1
0.1 -0.1 -0.1
0.2 -0.1 -0.1
0.3 -0.1 -0.1
0.4 -0.1 -0.1
0.5 -0.1 -0.1
0.6 -0.1 -0.1
0.7 -0.1 -0.1
0.8 -0.1 -0.1
0.9 -0.1 -0.1
1 -0.1 -0.1
1.1 -0.1 -0.1
1.2 -0.1 -0.1
1.3 -0.1 -0.1
1.4 -0.1 -0.1
1.5 -0.1 -0.1
1.6 -0.1 -0.1
1.7 -0.1 -0.1
1.8 -0.1 -0.1
1.9 -0.1 -0.1
-0.1 0 -0.1
0 0 -0.1
0.1 0 -0.1
0.2 0 -0.1
0.3 0 -0.1
0.4 0 -0.1
0.5 0 -0.1
0.6 0 -0.1
0.7 0 -0.1
0.8 0 -0.1
0.9 0 -0.1
1 0 -0.1
1.1 0 -0.1
1.2 0 -0.1
1.3 0 -0.1
1.4 0 -0.1
1.5 0 -0.1
1.6 0 -0.1
1.7 0 -0.1
1.8 0 -0.1
1.9 0 -0.1
-0.1 0.1 -0.1
0 0.1 -0.1
0.1 0.1 -0.1
0.2 0.1 -0.1
0.3 0.1 -0.1
0.4 0.1 -0.1
0.5 0.1 -0.1
0.6 0.1 -0.1
0.7 0.1 -0.1
0.8 0.1 -0.1
0.9 0.1 -0.1
1 0.1 -0.1
1.1 0.1 -0.1
1.2 0.1 -0.1
1.3 0.1 -0.1
1.4 0.1 -0.1
1.5 0.1 -0.1
1.6 0.1 -0.1
1.7 0.1 -0.1
1.8 0.1 -0.1
1.9 0.1 -0.1
-0.1 0.2 -0.1
0 0.2 -0.1
0.1 0.2 -0.1
0.2 0.2 -0.1
0.3 0.2 -0.1
0.4 0.2 -0.1
0.5 0.2 -0.1
0.6 0.2 -0.1
0.7 0.2 -0.1
0.8 0.2 -0.1
0.9 0.2 -0.1
1 0.2 -0.1
1.1 0.2 -0.1
1.2 0.2 -0.1
1.3 0.2 -0.1
1.4 0.2 -0.1
1.5 0.2 -0.1
1.6 0.2 -0.1
1.7 0.2 -0.1
1.8 0.2 -0.1
1.9 0.2 -0.1
-0.1 0.3 -0.1
0 0.3 -0.1
0.1 0.3 -0.1
0.2 0.3 -0.1
0.3 0.3 -0.1
0.4 0.3 -0.1
0.5 0.3 -0.1
0.6 0.3 -0.1
0.7 0.3 -0.1
0.8 0.3 -0.1
0.9 0.3 -0.1
1 0.3 -0.1
1.1 0.3 -0.1
1.2 0.3 -0.1
1.3 0.3 -0.1
1.4 0.3 -0.1
1.5 0.3 -0.1
1.6 0.3 -0.1
1.7 0.3 -0.1
1.8 0.3 -0.1
1.9 0.3 -0.1
-0.1 0.4 -0.1
0 0.4 -0.1
0.1 0.4 -0.1
0.2 0.4 -0.1
0.3 0.4 -0.1
0.4 0.4 -0.1
0.5 0.4 -0.1
0.6 0.4 -0.1
0.7 0.4 -0.1
0.8 0.4 -0.1
0.9 0.4 -0.1
1 0.4 -0.1
1.1 0.4 -0.1
1.2 0.4 -0.1
1.3 0.4 -0.1
1.4 0.4 -0.1
1.5 0.4 -0.1
1.6 0.4 -0.1
1.7 0.4 -0.1
1.8 0.4 -0.1
1.9 0.4 -0.1
-0.1 0.5 -0.1
0 0.5 -0.1
0.1 0.5 -0.1
0.2 0.5 -0.1
0.3 0.5 -0.1
0.4 0.5 -0.1
0.5 0.5 -0.1
0.6 0.5 -0.1
0.7 0.5 -0.1
0.8 0.5 -0.1
0.9 0.5 -0.1
1 0.5 -0.1
1.1 0.5 -0.1
1.2 0.5 -0.1
1.3 0.5 -0.1
1.4 0.5 -0.1
1.5 0.5 -0.1
1.6 0.5 -0.1
1.7 0.5 -0.1
1.8 0.5 -0.1
1.9 0.5 -0.1
-0.1 0.6 -0.1
0 0.6 -0.1
0.1 0.6 -0.1
0.2 0.6 -0.1
0.3 0.6 -0.1
0.4 0.6 -0.1
0.5 0.6 -0.1
0.6 0.6 -0.1
0.7 0.6 -0.1
0.8 0.6 -0.1
0.9 0.6 -0.1
1 0.6 -0.1
1.1 0.6 -0.1
1.2 0.6 -0.1
1.3 0.6 -0.1
1.4 0.6 -0.1
1.5 0.6 -0.1
1.6 0.6 -0.1
1.7 0.6 -0.1
1.8 0.6 -0.1
1.9 0.6 -0.1
-0.1 0.7 -0.1
0 0.7 -0.1
0.1 0.7 -0.1
0.2 0.7 -0.1
0.3 0.7 -0.1
0.4 0.7 -0.1
0.5 0.7 -0.1
0.6 0.7 -0.1
0.7 0.7 -0.1
0.8 0.7 -0.1
0.9 0.7 -0.1
1 0.7 -0.1
1.1 0.7 -0.1
1.2 0.7 -0.1
1.3 0.7 -0.1
1.4 0.7 -0.1
1.5 0.7 -0.1
1.6 0.7 -0.1
1.7 0.7 -0.1
1.8 0.7 -0.1
1.9 0.7 -0.1
-0.1 0.8 -0.1
0 0.8 -0.1
0.1 0.8 -0.1
0.2 0.8 -0.1
0.3 0.8 -0.1
0.4 0.8 -0.1
0.5 0.8 -0.1
0.6 0.8 -0.1
0.7 0.8 -0.1
0.8 0.8 -0.1
0.9 0.8 -0.1
1 0.8 -0.1
1.1 0.8 -0.1
1.2 0.8 -0.1
1.3 0.8 -0.1
1.4 0.8 -0.1
1.5 0.8 -0.1
1.6 0.8 -0.1
1.7 0.8 -0.1
1.8 0.8 -0.1
1.9 0.8 -0.1
-0.1 0.9 -0.1
0 0.9 -0.1
0.1 0.9 -0.1
0.2 0.9 -0.1
0.3 0.9 -0.1
0.4 0.9 -0.1
0.5 0.9 -0.1
0.6 0.9 -0.1
0.7 0.9 -0.1
0.8 0.9 -0.1
0.9 0.9 -0.1
1 0.9 -0.1
1.1 0.9 -0.1
1.2 0.9 -0.1
1.3 0.9 -0.1
1.4 0.9 -0.1
1.5 0.9 -0.1
1.6 0.9 -0.1
1.7 0.9 -0.1
1.8 0.9 -0.1
1.9 0.9 -0.1
-0.1 1 -0.1
0 1 -0.1
0.1 1 -0.1
0.2 1 -0.1
0.3 1 -0.1
0.4 1 -0.1
0.5 1 -0.1
0.6 1 -0.1
0.7 1 -0.1
0.8 1 -0.1
0.9 1 -0.1
1 1 -0.1
1.1 1 -0.1
1.2 1 -0.1
1.3 1 -0.1
1.4 1 -0.1
1.5 1 -0.1
1.6 1 -0.1
1.7 1 -0.1
1.8 1 -0.1
1.9 1 -0.1
-0.1 1.1 -0.1
0 1.1 -0.1
0.1 1.1 -0.1
0.2 1.1 -0.1
0.3 1.1 -0.1
0.4 1.1 -0.1
0.5 1.1 -0.1
0.6 1.1 -0.1
0.7 1.1 -0.1
0.8 1.1 -0.1
0.9 1.1 -0.1
1 1.1 -0.1
1.1 1.1 -0.1
1.2 1.1 -0.1
1.3 1.1 -0.1
1.4 1.1 -0.1
1.5 1.1 -0.1
1.6 1.1 -0.1
1.7 1.1 -0.1
1.8 1.1 -0.1
1.9 1.1 -0.1
-0.1 1.2 -0.1
0 1.2 -0.1
0.1 1.2 -0.1
0.2 1.2 -0.1
0.3 1.2 -0.1
0.4 1.2 -0.1
0.5 1.2 -0.1
0.6 1.2 -0.1
0.7 1.2 -0.1
0.8 1.2 -0.1
0.9 1.2 -0.1
1 1.2 -0.1
1.1 1.2 -0.1
1.2 1.2 -0.1
1.3 1.2 -0.1
1.4 1.2 -0.1
1.5 1.2 -0.1
1.6 1.2 -0.1
1.7 1.2 -0.1
1.8 1.2 -0.1
1.9 1.2 -0.1
-0.1 1.3 -0.1
0 1.3 -0.1
0.1 1.3 -0.1
0.2 1.3 -0.1
0.3 1.3 -0.1
0.4 1.3 -0.1
0.5 1.3 -0.1
0.6 1.3 -0.1
0.7 1.3 -0.1
0.8 1.3 -0.1
0.9 1.3 -0.1
1 1.3 -0.1
1.1 1.3 -0.1
1.2 1.3 -0.1
1.3 1.3 -0.1
1.4 1.3 -0.1
1.5 1.3 -0.1
1.6 1.3 -0.1
1.7 1.3 -0.1
1.8 1.3 -0.1
1.9 1.3 -0.1
-0.1 1.4 -0.1
0 1.4 -0.1
0.1 1.4 -0.1
0.2 1.4 -0.1
0.3 1.4 -0.1
0.4 1.4 -0.1
0.5 1.4 -0.1
0.6 1.4 -0.1
0.7 1.4 -0.1
0.8 1.4 -0.1
0.9 1.4 -0.1
1 1.4 -0.1
1.1 1.4 -0.1
1.2 1.4 -0.1
1.3 1.4 -0.1
1.4 1.4 -0.1
1.5 1.4 -0.1
1.6 1.4 -0.1
1.7 1.4 -0.1
1.8 1.4 -0.1
1.9 1.4 -0.1
-0.1 1.5 -0.1
0 1.5 -0.1
0.1 1.5 -0.1
0.2 1.5 -0.1
0.3 1.5 -0.1
0.4 1.5 -0.1
0.5 1.5 -0.1
0.6 1.5 -0.1
0.7 1.5 -0.1
0.8 1.5 -0.1
0.9 1.5 -0.1
1 1.5 -0.1
1.1 1.5 -0.1
1.2 1.5 -0.1
1.3 1.5 -0.1
1.4 1.5 -0.1
1.5 1.5 -0.1
1.6 1.5 -0.1
1.7 1.5 -0.1
1.8 1.5 -0.1
1.9 1.5 -0.1
-0.1 1.6 -0.1
0 1.6 -0.1
0.1 1.6 -0.1
0.2 1.6 -0.1
0.3 1.6 -0.1
0.4 1.6 -0.1
0.5 1.6 -0.1
0.6 1.6 -0.1
0.7 1.6 -0.1
0.8 1.6 -0.1
0.9 1.6 -0.1
1 1.6 -0.1
1.1 1.6 -0.1
1.2 1.6 -0.1
1.3 1.6 -0.1
1.4 1.6 -0.1
1.5 1.6 -0.1
1.6 1.6 -0.1
1.7 1.6 -0.1
1.8 1.6 -0.1
1.9 1.6 -0.1
-0.1 1.7 -0.1
0 1.7 -0.1
0.1 1.7 -0.1
0.2 1.7 -0.1
0.3 1.7 -0.1
0.4 1.7 -0.1
0.5 1.7 -0.1
0.6 1.7 -0.1
0.7 1.7 -0.1
0.8 1.7 -0.1
0.9 1.7 -0.1
1 1.7 -0.1
1.1 1.7 -0.1
1.2 1.7 -0.1
1.3 1.7 -0.1
1.4 1.7 -0.1
1.5 1.7 -0.1
1.6 1.7 -0.1
1.7 1.7 -0.1
1.8 1.7 -0.1
1.9 1.7 -0.1
-0.1 1.8 -0.1
0 1.8 -0.1
0.1 1.8 -0.1
0.2 1.8 -0.1
0.3 1.8 -0.1
0.4 1.8 -0.1
0.5 1.8 -0.1
0.6 1.8 -0.1
0.7 1.8 -0.1
0.8 1.8 -0.1
0.9 1.8 -0.1
1 1.8 -0.1
1.1 1.8 -0.1
1.2 1.8 -0.1
1.3 1.8 -0.1
1.4 1.8 -0.1
1.5 1.8 -0.1
1.6 1.8 -0.1
1.7 1.8 -0.1
1.8 1.8 -0.1
1.9 1.8 -0.1
-0.1 1.9 -0.1
0 1.9 -0.1
0.1 1.9 -0.1
0.2 1.9 -0.1
0.3 1.9 -0.1
0.4 1.9 -0.1
0.5 1.9 -0.1
0.6 1.9 -0.1
0.7 1.9 -0.1
0.8 1.9 -0.1
0.9 1.9 -0.1
1 1.9 -0.1
1.1 1.9 -0.1
1.2 1.9 -0.1
1.3 1.9 -0.1
1.4 1.9 -0.1
1.5 1.9 -0.1
1.6 1.9 -0.1
1.7 1.9 -0.1
1.8 1.9 -0.1
1.9 1.9 -0.1
-0.1 -0.1 0
0 -0.1 0
0.1 -0.1 0
0.2 -0.1 0
0.3 -0.1 0
0.4 -0.1 0
0.5 -0.1 0
0.6 -0.1 0
0.7 -0.1 0
0.8 -0.1 0
0.9 -0.1 0
1 -0.1 0
1.1 -0.1 0
1.2 -0.1 0
1.3 -0.1 0
1.4 -0.1 0
1.5 -0.1 0
1.6 -0.1 0
1.7 -0.1 0
1.8 -0.1 0
1.9 -0.1 0
-0.1 0 0
0 0 0
0.1 0 0
0.2 0 0
0.3 0 0
0.4 0 0
0.5 0 0
0.6 0 0
0.7 0 0
0.8 0 0
0.9 0 0
1 0 0
1.1 0 0
1.2 0 0
1.3 0 0
1.4 0 0
1.5 0 0
1.6 0 0
1.7 0 0
1.8 0 0
1.9 0 0
-0.1 0.1 0
0 0.1 0
0.1 0.1 0
0.2 0.1 0
0.3 0.1 0
0.4 0.1 0
0.5 0.1 0
0.6 0.1 0
0.7 0.1 0
0.8 0.1 0
0.9 0.1 0
1 0.1 0
1.1 0.1 0
1.2 0.1 0
1.3 0.1 0
1.4 0.1 0
1.5 0.1 0
1.6 0.1 0
1.7 0.1 0
1.8 0.1 0
1.9 0.1 0
-0.1 0.2 0
0 0.2 0
0.1 0.2 0
0.2 0.2 0
0.3 0.2 0
0.4 0.2 0
0.5 0.2 0
0.6 0.2 0
0.7 0.2 0
0.8 0.2 0
0.9 0.2 0
1 0.2 0
1.1 0.2 0
1.2 0.2 0
1.3 0.2 0
1.4 0.2 0
1.5 0.2 0
1.6 0.2 0
1.7 0.2 0
1.8 0.2 0
1.9 0.2 0
-0.1 0.3 0
0 0.3 0
0.1 0.3 0
0.2 0.3 0
0.3 0.3 0
0.4 0.3 0
0.5 0.3 0
0.6 0.3 0
0.7 0.3 0
0.8 0.3 0
0.9 0.3 0
1 0.3 0
1.1 0.3 0
1.2 0.3 0
1.3 0.3 0
1.4 0.3 0
1.5 0.3 0
1.6 0.3 0
1.7 0.3 0
1.8 0.3 0
1.9 0.3 0
-0.1 0.4 0
0 0.4 0
0.1 0.4 0
0.2 0.4 0
0.3 0.4 0
0.4 0.4 0
0.5 0.4 0
0.6 0.4 0
0.7 0.4 0
0.8 0.4 0
0.9 0.4 0
1 0.4 0
1.1 0.4 0
1.2 0.4 0
1.3 0.4 0
1.4 0.4 0
1.5 0.4 0
1.6 0.4 0
1.7 0.4 0
1.8 0.4 0
1.9 0.4 0
-0.1 0.5 0
0 0.5 0
0.1 0.5 0
0.2 0.5 0
0.3 0.5 0
0.4 0.5 0
0.5 0.5 0
0.6 0.5 0
0.7 0.5 0
0.8 0.5 0
0.9 0.5 0
1 0.5 0
1.1 0.5 0
1.2 0.5 0
1.3 0.5 0
1.4 0.5 0
1.5 0.5 0
1.6 0.5 0
1.7 0.5 0
1.8 0.5 0
1.9 0.5 0
-0.1 0.6 0
0 0.6 0
0.1 0.6 0
0.2 0.6 0
0.3 0.6 0
0.4 0.6 0
0.5 0.6 0
0.6 0.6 0
0.7 0.6 0
0.8 0.6 0
0.9 0.6 0
1 0.6 0
1.1 0.6 0
1.2 0.6 0
1.3 0.6 0
1.4 0.6 0
1.5 0.6 0
1.6 0.6 0
1.7 0.6 0
1.8 0.6 0
1.9 0.6 0
-0.1 0.7 0
0 0.7 0
0.1 0.7 0
0.2 0.7 0
0.3 0.7 0
0.4 0.7 0
0.5 0.7 0
0.6 0.7 0
0.7 0.7 0
0.8 0.7 0
0.9 0.7 0
1 0.7 0
1.1 0.7 0
1.2 0.7 0
1.3 0.7 0
1.4 0.7 0
1.5 0.7 0
1.6 0.7 0
1.7 0.7 0
1.8 0.7 0
1.9 0.7 0
-0.1 0.8 0
0 0.8 0
0.1 0.8 0
0.2 0.8 0
0.3 0.8 0
0.4 0.8 0
0.5 0.8 0
0.6 0.8 0
0.7 0.8 0
0.8 0.8 0
0.9 0.8 0
1 0.8 0
1.1 0.8 0
1.2 0.8 0
1.3 0.8 0
1.4 0.8 0
1.5 0.8 0
1.6 0.8 0
1.7 0.8 0
1.8 0.8 0
1.9 0.8 0
-0.1 0.9 0
0 0.9 0
0.1 0.9 0
0.2 0.9 0
0.3 0.9 0
0.4 0.9 0
0.5 0.9 0
0.6 0.9 0
0.7 0.9 0
0.8 0.9 0
0.9 0.9 0
1 0.9 0
1.1 0.9 0
1.2 0.9 0
1.3 0.9 0
1.4 0.9 0
1.5 0.9 0
1.6 0.9 0
1.7 0.9 0
1.8 0.9 0
1.9 0.9 0
-0.1 1 0
0 1 0
0.1 1 0
0.2 1 0
0.3 1 0
0.4 1 0
0.5 1 0
0.6 1 0
0.7 1 0
0.8 1 0
0.9 1 0
1 1 0
1.1 1 0
1.2 1 0
1.3 1 0
1.4 1 0
1.5 1 0
1.6 1 0
1.7 1 0
1.8 1 0
1.9 1 0
-0.1 1.1 0
0 1.1 0
0.1 1.1 0
0.2 1.1 0
0.3 1.1 0
0.4 1.1 0
0.5 1.1 0
0.6 1.1 0
0.7 1.1 0
0.8 1.1 0
0.9 1.1 0
1 1.1 0
1.1 1.1 0
1.2 1.1 0
1.3 1.1 0
1.4 1.1 0
1.5 1.1 0
1.6 1.1 0
1.7 1.1 0
1.8 1.1 0
1.9 1.1 0
-0.1 1.2 0
0 1.2 0
0.1 1.2 0
0.2 1.2 0
0.3 1.2 0
0.4 1.2 0
0.5 1.2 0
0.6 1.2 0
0.7 1.2 0
0.8 1.2 0
0.9 1.2 0
1 1.2 0
1.1 1.2 0
1.2 1.2 0
1.3 1.2 0
1.4 1.2 0
1.5 1.2 0
1.6 1.2 0
1.7 1.2 0
1.8 1.2 0
1.9 1.2 0
-0.1 1.3 0
0 1.3 0
0.1 1.3 0
0.2 1.3 0
0.3 1.3 0
0.4 1.3 0
0.5 1.3 0
0.6 1.3 0
0.7 1.3 0
0.8 1.3 0
0.9 1.3 0
1 1.3 0
1.1 1.3 0
1.2 1.3 0
1.3 1.3 0
1.4 1.3 0
1.5 1.3 0
1.6 1.3 0
1.7 1.3 0
1.8 1.3 0
1.9 1.3 0
-0.1 1.4 0
0 1.4 0
0.1 1.4 0
0.2 1.4 0
0.3 1.4 0
0.4 1.4 0
0.5 1.4 0
0.6 1.4 0
0.7 1.4 0
0.8 1.4 0
0.9 1.4 0
1 1.4 0
1.1 1.4 0
1.2 1.4 0
1.3 1.4 0
1.4 1.4 0
1.5 1.4 0
1.6 1.4 0
1.7 1.4 0
1.8 1.4 0
1.9 1.4 0
-0.1 1.5 0
0 1.5 0
0.1 1.5 0
0.2 1.5 0
0.3 1.5 0
0.4 1.5 0
0.5 1.5 0
0.6 1.5 0
0.7 1.5 0
0.8 1.5 0
0.9 1.5 0
1 1.5 0
1.1 1.5 0
1.2 1.5 0
1.3 1.5 0
1.4 1.5 0
1.5 1.5 0
1.6 1.5 0
1.7 1.5 0
1.8 1.5 0
1.9 1.5 0
-0.1 1.6 0
0 1.6 0
0.1 1.6 0
0.2 1.6 0
0.3 1.6 0
0.4 1.6 0
0.5 1.6 0
0.6 1.6 0
0.7 1.6 0
0.8 1.6 0
0.9 1.6 0
1 1.6 0
1.1 1.6 0
1.2 1.6 0
1.3 1.6 0
1.4 1.6 0
1.5 1.6 0
1.6 1.6 0
1.7 1.6 0
1.8 1.6 0
1.9 1.6 0
-0.1 1.7 0
0 1.7 0
0.1 1.7 0
0.2 1.7 0
0.3 1.7 0
0.4 1.7 0
0.5 1.7 0
0.6 1.7 0
0.7 1.7 0
0.8 1.7 0
0.9 1.7 0
1 1.7 0
1.1 1.7 0
1.2 1.7 0
1.3 1.7 0
1.4 1.7 0
1.5 1.7 0
1.6 1.7 0
1.7 1.7 0
1.8 1.7 0
1.9 1.7 0
-0.1 1.8 0
0 1.8 0
0.1 1.8 0
0.2 1.8 0
0.3 1.8 0
0.4 1.8 0
0.5 1.8 0
0.6 1.8 0
0.7 1.8 0
0.8 1.8 0
0.9 1.8 0
1 1.8 0
1.1 1.8 0
1.2 1.8 0
1.3 1.8 0
1.4 1.8 0
1.5 1.8 0
1.6 1.8 0
1.7 1.8 0
1.8 1.8 0
1.9 1.8 0
-0.1 1.9 0
0 1.9 0
0.1 1.9 0
0.2 1.9 0
0.3 1.9 0
0.4 1.9 0
0.5 1.9 0
0.6 1.9 0
0.7 1.9 0
0.8 1.9 0
0.9 1.9 0
1 1.9 0
1.1 1.9 0
1.2 1.9 0
1.3 1.9 0
1.4 1.9 0
1.5 1.9 0
1.6 1.9 0
1.7 1.9 0
1.8 1.9 0
[...]
CELL_DATA 4000
VECTORS velocity double 
-2.81192e-05 0.000256318 -0.000228199
-3.06595e-05 0.000305999 -0.000260544
-2.73717e-05 0.000311564 -0.000269517
-1.70537e-05 0.000312339 -0.000275156
4.02268e-08 0.000312583 -0.000278733
2.22538e-05 0.000313095 -0.000281002
4.74638e-05 0.000314065 -0.000282406
7.34498e-05 0.00031547 -0.000283111
9.80321e-05 0.000317291 -0.000283134
0.000119039 0.000319417 -0.000282379
0.000134317 0.000321719 -0.000280753
0.000141941 0.000324034 -0.000278198
0.000140256 0.000326053 -0.000274761
0.000128335 0.00032747 -0.000270561
0.000106196 0.000327887 -0.000265834
7.48853e-05 0.000326935 -0.000261001
3.69271e-05 0.000324241 -0.00025635
-3.68784e-06 0.000319491 -0.000252264
-4.16399e-05 0.000310879 -0.000247659
-2.08199e-05 0.000267561 -0.000216532
-1.66548e-05 0.000752715 -0.000294621
-2.05258e-05 0.000895958 -0.000348182
-2.0547e-05 0.000912003 -0.000362345
-1.22207e-05 0.000914275 -0.000370389
5.16151e-06 0.000914513 -0.000375221
3.0111e-05 0.000915091 -0.000378075
6.02654e-05 0.000916667 -0.000379651
9.30433e-05 0.000919369 -0.000380207
0.000125671 0.000923149 -0.000379815
0.000155279 0.000927838 -0.00037836
0.00017894 0.000933156 -0.000375738
0.000193789 0.000938672 -0.00037187
0.000197266 0.000943642 -0.000366835
0.00018748 0.000947271 -0.000360872
0.000163681 0.000948608 -0.000354197
0.000126413 0.000946562 -0.000347394
7.81384e-05 0.000940206 -0.000340885
2.3199e-05 0.000928463 -0.000335351
-3.02335e-05 0.000904639 -0.000329238
-1.51168e-05 0.000765605 -0.000285302
-4.11437e-06 0.00142066 -0.000369009
-4.5545e-06 0.00171206 -0.000438446
-5.47296e-06 0.00174568 -0.000456859
1.10879e-06 0.00175083 -0.00046718
1.72585e-05 0.00175124 -0.000473223
4.188e-05 0.00175159 -0.000476619
7.26552e-05 0.00175323 -0.000478333
0.000106902 0.0017566 -0.000478726
0.000141708 0.00176171 -0.000477886
0.000173961 0.00176839 -0.000475717
0.00020039 0.00177619 -0.000472088
0.000217606 0.0017844 -0.000466957
0.000222562 0.00179196 -0.000460339
0.00021278 0.00179742 -0.00045253
0.000186811 0.00179916 -0.000443883
0.000144801 0.00179547 -0.000434985
8.89012e-05 0.00178488 -0.00042648
2.34481e-05 0.00176486 -0.000419185
-4.08172e-05 0.00171985 -0.000411672
-2.04086e-05 0.00143258 -0.000357861
1.05438e-05 0.00225427 -0.000464295
1.5803e-05 0.0027556 -0.000551586
1.47741e-05 0.00281607 -0.000574365
1.95151e-05 0.00282613 -0.000587175
3.39484e-05 0.00282724 -0.000594616
5.75588e-05 0.00282721 -0.000598724
8.81996e-05 0.00282842 -0.00060065
0.000123119 0.00283168 -0.000600936
0.000159274 0.00283716 -0.000599718
0.000193297 0.00284471 -0.00059686
0.000221533 0.00285384 -0.000592214
0.000240207 0.00286359 -0.000585734
0.000245567 0.00287252 -0.000577429
0.000234503 0.00287869 -0.000567501
0.000205003 0.00287993 -0.000556487
0.000156848 0.00287365 -0.000545065
9.15118e-05 0.00285758 -0.000534357
1.39642e-05 0.00282786 -0.000525125
-6.06689e-05 0.00275441 -0.000515928
-3.03345e-05 0.00226056 -0.0004494
2.84008e-05 0.00326326 -0.000574665
4.18677e-05 0.00404342 -0.000681435
4.16088e-05 0.00414227 -0.000708476
4.43151e-05 0.00415991 -0.00072384
5.63242e-05 0.00416256 -0.000732798
7.80254e-05 0.0041622 -0.000737719
0.000107548 0.00416252 -0.000739975
0.000142164 0.00416485 -0.000740265
0.000178719 0.0041696 -0.000738745
0.000213655 0.00417672 -0.000735283
0.000242927 0.0041857 -0.000729732
0.000262279 0.00419543 -0.000721879
0.000267326 0.00420421 -0.000711793
0.000254338 0.00420968 -0.000699678
0.000220408 0.00420895 -0.000686265
0.000164812 0.00419889 -0.000672087
8.89012e-05 0.00417613 -0.000658687
-1.58033e-06 0.00413464 -0.000647473
-8.6237e-05 0.00402317 -0.000636868
-4.31185e-05 0.00325784 -0.000555736
5.01558e-05 0.00445814 -0.000694623
7.4848e-05 0.00559296 -0.000821385
7.65312e-05 0.00574388 -0.000852231
7.71277e-05 0.00577231 -0.000870056
8.59218e-05 0.00577756 -0.000880597
0.00010459 0.00577708 -0.00088639
0.000131702 0.00577619 -0.000889095
0.000164665 0.00577685 -0.000889501
0.000200288 0.00577983 -0.000887842
0.000234829 0.00578521 -0.000883959
0.000263939 0.00579251 -0.000877631
0.000282899 0.00580062 -0.000868548
0.000286702 0.00580765 -0.000856832
0.000270809 0.00581085 -0.000842515
0.000231606 0.00580658 -0.000826561
0.000167493 0.00579112 -0.000809856
7.97893e-05 0.00576017 -0.000793847
-2.45741e-05 0.00570448 -0.000780609
-0.000118613 0.00554354 -0.000768706
-5.93064e-05 0.004435 -0.000671908
7.62515e-05 0.00584404 -0.000818798
0.000115607 0.00741527 -0.000964881
0.000120663 0.0076337 -0.000998745
0.000119171 0.00767654 -0.00101872
0.000123977 0.00768558 -0.00103077
0.000138414 0.00768533 -0.00103747
0.000161668 0.00768305 -0.00104072
0.000191442 0.00768156 -0.00104142
0.000224534 0.00768191 -0.00103984
0.000257098 0.00768441 -0.00103577
0.000284588 0.00768878 -0.00102893
0.000301863 0.00769389 -0.00101893
0.000303255 0.00769765 -0.00100593
0.000283247 0.00769706 -0.000989854
0.000237553 0.00768788 -0.00097143
0.000163762 0.00766554 -0.000952114
6.31102e-05 0.00762481 -0.00093366
-5.60136e-05 0.00755192 -0.000918773
-0.000158873 0.00732814 -0.000905932
-7.94364e-05 0.00579839 -0.000792963
0.000106725 0.00741803 -0.000941887
0.000164342 0.00951165 -0.0011055
0.000174345 0.0098143 -0.00114121
0.000170898 0.00987521 -0.00116279
0.000171033 0.00988918 -0.00117612
0.000180061 0.00988956 -0.00118373
0.000198106 0.00988595 -0.0011876
0.000223109 0.009882 -0.00118876
0.000252026 0.00987926 -0.00118754
0.000281059 0.00987829 -0.00118363
0.000305443 0.00987893 -0.00117675
0.000319577 0.00988015 -0.0011663
0.000317255 0.00987974 -0.00115232
0.000291963 0.00987427 -0.00113497
0.000238463 0.00985921 -0.00111477
0.000153692 0.0098291 -0.00109322
3.87247e-05 0.00977738 -0.00107256
-9.59927e-05 0.00968419 -0.00105632
-0.000207059 0.00938218 -0.00104318
-0.00010353 0.00734796 -0.000914163
0.000141135 0.00916912 -0.00105929
0.000220292 0.011873 -0.00123776
0.000236734 0.0122771 -0.00127372
0.000231507 0.0123593 -0.0012961
0.000226432 0.0123791 -0.00131035
0.000229137 0.0123804 -0.00131875
0.000240755 0.0123757 -0.00132329
0.000259704 0.0123694 -0.00132507
0.000283151 0.0123636 -0.00132447
0.000307303 0.0123591 -0.00132111
0.000327293 0.0123558 -0.00131467
0.000337122 0.012353 -0.00130458
0.000329864 0.0123485 -0.00129037
0.000298294 0.0123383 -0.00127228
0.000236012 0.0123175 -0.00125099
0.000139043 0.0122797 -0.00122794
8.3656e-06 0.0122166 -0.00120577
-0.000143119 0.0121003 -0.00118851
-0.000261832 0.0117032 -0.00117567
-0.000130916 0.00907668 -0.00103165
0.000178287 0.0110809 -0.00116854
0.00028134 0.0144822 -0.00135871
0.000305292 0.0150046 -0.00139303
0.000298416 0.0151106 -0.00141517
0.000287757 0.0151362 -0.00142979
0.000283591 0.0151385 -0.00143867
0.000288103 0.0151328 -0.00144384
0.000300204 0.0151246 -0.00144639
0.000317346 0.0151162 -0.00144669
0.000335794 0.0151088 -0.00144438
0.000350731 0.0151026 -0.00143881
0.000355801 0.0150968 -0.0014297
0.000343289 0.0150892 -0.00141645
0.00030504 0.015076 -0.00139884
0.000233467 0.0150513 -0.00137746
0.000123521 0.0150076 -0.00135381
-2.40137e-05 0.0149343 -0.00133098
-0.000193659 0.0147928 -0.00131361
-0.000320588 0.0142826 -0.00130158
-0.000160294 0.0109733 -0.00114337
0.000216139 0.0131378 -0.00127136
0.000343717 0.0173216 -0.00147054
0.0003752 0.0179773 -0.00150124
0.000366519 0.0181075 -0.00152182
0.000350169 0.0181378 -0.00153609
0.000338988 0.0181406 -0.00154511
0.000336322 0.0181341 -0.00155069
0.00034157 0.0181245 -0.00155399
0.000352549 0.0181145 -0.00155524
0.000365463 0.0181054 -0.0015545
0.000375648 0.0180978 -0.00155068
0.000376493 0.0180912 -0.00154328
0.000359556 0.0180836 -0.00153185
0.000315715 0.0180708 -0.00151588
0.000235748 0.0180466 -0.0014958
0.000113118 0.0180019 -0.00147292
-5.19059e-05 0.0179222 -0.00145041
-0.000241443 0.017755 -0.00143406
-0.000378256 0.017113 -0.00142376
-0.000189128 0.0130284 -0.00125144
0.000251633 0.0153374 -0.00137696
0.000401321 0.0203855 -0.00158445
0.000438568 0.0211864 -0.00160975
0.000427243 0.0213382 -0.0016274
0.000405191 0.0213702 -0.00164032
0.000387565 0.0213719 -0.00164888
0.000378599 0.0213643 -0.00165459
0.000377967 0.0213539 -0.00165868
0.000383796 0.0213434 -0.00166094
0.000392692 0.0213343 -0.00166165
0.000399876 0.0213276 -0.00166001
0.000398662 0.0213233 -0.00165521
0.000380199 0.0213199 -0.0016466
0.000334046 0.0213137 -0.00163355
0.000249019 0.0212974 -0.0016163
0.000116152 0.0212602 -0.00159584
-6.59128e-05 0.0211825 -0.00157523
-0.000277208 0.0209925 -0.00156079
-0.000427378 0.0202006 -0.00155272
-0.000213689 0.0152449 -0.00136522
0.000280202 0.0177098 -0.00150714
0.000444752 0.0237034 -0.00172681
0.000483094 0.0246556 -0.00174546
0.000467277 0.0248221 -0.00175874
0.000439675 0.0248502 -0.00176928
0.000416838 0.0248482 -0.00177673
0.000403371 0.0248385 -0.001782
0.000399031 0.0248274 -0.0017865
0.000402029 0.0248173 -0.00179
0.000409478 0.0248098 -0.00179228
0.000417089 0.0248063 -0.00179284
0.000418194 0.0248079 -0.0017911
0.000403736 0.024814 -0.00178618
0.00036182 0.0248219 -0.00177735
0.000278843 0.0248242 -0.00176441
0.000142147 0.0248079 -0.00174812
-5.35931e-05 0.0247463 -0.00173136
-0.000287841 0.0245429 -0.00172013
-0.000457675 0.0235862 -0.0017141
-0.000228838 0.0176574 -0.0015058
0.000294881 0.0203523 -0.00170542
0.000459593 0.0273786 -0.00194989
0.000489968 0.0284793 -0.00196172
0.000466352 0.0286471 -0.00196924
0.000433584 0.0286624 -0.0019762
0.000407772 0.0286522 -0.00198181
0.000392654 0.0286391 -0.0019863
0.000387856 0.028627 -0.00199041
0.000391708 0.0286176 -0.0019945
0.00040184 0.0286126 -0.0019982
0.0004147 0.028614 -0.00200099
0.000424404 0.0286242 -0.00200237
0.000422224 0.0286446 -0.00200146
0.000395245 0.0286744 -0.00199768
0.000326907 0.0287078 -0.00199043
0.000198983 0.0287306 -0.00198002
-8.10142e-07 0.0287079 -0.00196878
-0.000256318 0.0285106 -0.0019621
-0.000454677 0.0273819 -0.00195749
-0.000227338 0.0203639 -0.00171509
0.000284102 0.0234917 -0.00205649
0.000422416 0.0316583 -0.00235448
0.000429644 0.0328896 -0.00236103
0.00039338 0.0330361 -0.00236166
0.000356466 0.0330263 -0.00236388
0.000331435 0.0330025 -0.00236647
0.000319249 0.0329833 -0.0023696
0.000318605 0.0329693 -0.00237321
0.000328012 0.0329602 -0.00237729
0.000345894 0.0329573 -0.00238163
0.000369872 0.0329637 -0.00238602
0.000395861 0.0329831 -0.00238997
0.000416471 0.03302 -0.00239281
0.000419142 0.0330772 -0.00239411
0.000384946 0.0331534 -0.00239321
0.00028843 0.0332363 -0.00239007
0.000105266 0.0332845 -0.00238602
-0.000161617 0.0331294 -0.00238496
-0.000398729 0.0318376 -0.00237968
-0.000199365 0.0235855 -0.00207477
0.000226086 0.0276141 -0.00273292
0.000292002 0.0370732 -0.00314433
0.000252894 0.0383916 -0.00314941
0.000198578 0.0384824 -0.00314216
0.000160647 0.0384323 -0.00313879
0.000142444 0.0383894 -0.00313752
0.000140093 0.038362 -0.00313819
0.000150342 0.0383445 -0.00314039
0.000171586 0.038334 -0.00314367
0.000203198 0.0383315 -0.00314786
0.000244758 0.0383405 -0.00315281
0.000294982 0.0383664 -0.00315821
0.000349601 0.0384169 -0.00316393
0.0003993 0.0385006 -0.00316952
0.000425463 0.0386243 -0.00317459
0.000396577 0.0387849 -0.00317905
0.000270572 0.0389423 -0.0031833
2.12237e-05 0.0388887 -0.003189
-0.000260362 0.0374759 -0.00317907
-0.000130181 0.02779 -0.0027533
7.39158e-05 0.0337635 -0.00411633
-1.13072e-05 0.0447509 -0.00476442
-0.000128404 0.0460678 -0.00477543
-0.000203129 0.0460565 -0.00475935
-0.00023287 0.0459516 -0.00474893
-0.000232385 0.0458857 -0.00474325
-0.000213383 0.0458484 -0.00474091
-0.000181664 0.0458255 -0.00474081
-0.000139132 0.0458115 -0.00474237
-8.53692e-05 0.0458063 -0.00474536
-1.85926e-05 0.0458133 -0.00474961
6.34788e-05 0.0458392 -0.0047551
0.000162311 0.0458941 -0.00476194
0.000275939 0.0459929 -0.00477009
0.000392834 0.046154 -0.00477965
0.000482599 0.046393 -0.00479064
0.000486127 0.0466904 -0.00480308
0.000325865 0.0468207 -0.00481595
1.60759e-05 0.0453944 -0.00479526
8.03794e-06 0.0339861 -0.00412901
-0.000286769 0.0442259 -0.00705513
-0.00065537 0.0570745 -0.00817588
-0.000881317 0.058227 -0.00820459
-0.000962062 0.0580664 -0.00818066
-0.00095708 0.0579032 -0.00816264
-0.000910471 0.0578162 -0.00815163
-0.000844539 0.0577691 -0.00814542
-0.000768213 0.0577397 -0.00814231
-0.00068384 0.0577201 -0.00814135
-0.000590237 0.0577091 -0.00814214
-0.000483694 0.0577093 -0.00814455
-0.000358274 0.0577267 -0.00814878
-0.000205457 0.0577723 -0.00815508
-1.5441e-05 0.057864 -0.00816383
0.000218124 0.0580304 -0.00817552
0.000485428 0.0583118 -0.00819051
0.000731962 0.0587351 -0.00820881
0.000821236 0.0591226 -0.0082272
0.000579744 0.0579015 -0.00818731
0.000289872 0.044419 -0.00705379
-0.0011556 0.0619249 -0.0112667
-0.00198391 0.07645 -0.0128797
-0.00228008 0.0771939 -0.0129299
-0.00227318 0.0768944 -0.012903
-0.00214034 0.0767031 -0.0128787
-0.00196571 0.0766105 -0.0128625
-0.00178233 0.0765603 -0.0128522
-0.00160124 0.0765281 -0.0128459
-0.00142454 0.0765053 -0.0128423
-0.00125012 0.07649 -0.0128408
-0.00107291 0.0764832 -0.0128414
-0.000884057 0.0764889 -0.0128441
-0.000669175 0.0765149 -0.0128494
-0.000405547 0.0765761 -0.0128583
-5.97922e-05 0.0767007 -0.0128714
0.000408694 0.0769394 -0.0128892
0.00101872 0.0773668 -0.0129105
0.00166041 0.0779395 -0.0129279
0.00185099 0.0772292 -0.012869
0.000925496 0.0620322 -0.0112644
-0.00303175 0.0309625 0.0429353
-0.00402575 0.038225 0.0475121
-0.00389494 0.038597 0.0475648
-0.00342881 0.0384472 0.0475723
-0.00292832 0.0383516 0.0475958
-0.00247863 0.0383052 0.0476147
-0.00209328 0.0382802 0.0476271
-0.00176569 0.0382641 0.0476352
-0.00148517 0.0382527 0.0476404
-0.00124087 0.038245 0.0476431
-0.00102198 0.0382416 0.0476435
-0.00081643 0.0382445 0.047641
-0.000607739 0.0382574 0.0476345
-0.000369659 0.0382881 0.0476222
-5.49432e-05 0.0383503 0.0476016
0.000427098 0.0384697 0.0475708
0.00124586 0.0386834 0.0475334
0.00263141 0.0389697 0.0475139
0.00425804 0.0386146 0.0474562
0.00212902 0.0310161 0.0429146
-3.31713e-05 0.000255423 -0.000507576
-4.51778e-05 0.000306228 -0.000608401
-4.78787e-05 0.00030966 -0.000633029
-3.99671e-05 0.000309041 -0.000647364
-2.22035e-05 0.000308576 -0.000656856
3.34378e-06 0.000308881 -0.000663444
3.42324e-05 0.000309989 -0.000668077
6.78965e-05 0.000311814 -0.000671106
0.000101775 0.00031428 -0.000672383
0.000133169 0.000317268 -0.000671645
0.000159298 0.00032063 -0.000668564
0.000177484 0.000324187 -0.000662857
0.000185244 0.000327562 -0.000654607
0.000180733 0.000330304 -0.000644033
0.000163022 0.000332016 -0.000631779
0.000132665 0.000332164 -0.00061867
9.1809e-05 0.000330238 -0.000605817
4.46399e-05 0.000325571 -0.000593943
-3.12718e-06 0.000315667 -0.000580064
-1.56359e-06 0.000264039 -0.000493726
-2.72087e-05 0.000768675 -0.000707035
-4.39039e-05 0.000928147 -0.000872857
-5.22018e-05 0.00094164 -0.00091278
-4.77746e-05 0.000940886 -0.000933904
-3.02905e-05 0.000939344 -0.000946993
-1.50793e-06 0.000939245 -0.000955502
3.60471e-05 0.000940956 -0.000961019
7.94965e-05 0.000944463 -0.000964137
0.000125689 0.000949652 -0.000964822
0.00017112 0.000956314 -0.000962677
0.000212048 0.000964157 -0.000957315
0.000244495 0.000972643 -0.000948403
0.000264519 0.000980929 -0.000935989
0.000268881 0.000987957 -0.000920418
0.000255229 0.000992521 -0.00090257
0.000223023 0.000993269 -0.000883452
0.000173597 0.00098878 -0.000864614
0.000110961 0.000977331 -0.000846875
4.18884e-05 0.000949427 -0.000824613
2.09442e-05 0.000782672 -0.000689607
-1.72547e-05 0.00149378 -0.000920425
-3.22723e-05 0.00183605 -0.00114018
-4.22927e-05 0.00186982 -0.00119369
-3.9767e-05 0.0018707 -0.00122119
-2.32345e-05 0.00186817 -0.00123753
5.81756e-06 0.00186718 -0.00124753
4.49399e-05 0.00186884 -0.00125349
9.123e-05 0.00187332 -0.0012563
0.000141424 0.00188054 -0.00125605
0.000191827 0.00189032 -0.00125229
0.000238283 0.00190219 -0.00124456
0.000276268 0.00191525 -0.00123249
0.000301123 0.00192824 -0.00121604
0.000308727 0.00193944 -0.00119559
0.000295839 0.00194665 -0.00117218
0.000261001 0.00194761 -0.00114703
0.00020484 0.00193971 -0.00112187
0.000130484 0.0019194 -0.00109812
4.62819e-05 0.00186454 -0.00106827
2.3141e-05 0.00151181 -0.000893104
-4.02317e-06 0.00243881 -0.00119102
-1.45908e-05 0.00305264 -0.00147367
-2.5184e-05 0.00312089 -0.00154209
-2.42879e-05 0.00312631 -0.00157677
-8.87075e-06 0.00312342 -0.00159687
2.00999e-05 0.00312131 -0.00160866
6.02423e-05 0.00312223 -0.00161521
0.000108619 0.00312671 -0.0016178
0.000161925 0.00313485 -0.00161659
0.000216229 0.00314646 -0.00161118
0.000266938 0.00316099 -0.00160093
0.000309074 0.0031774 -0.00158532
0.000337246 0.00319386 -0.00156433
0.000346313 0.00320798 -0.0015383
0.000332164 0.00321667 -0.00150833
0.000292267 0.00321666 -0.00147609
0.000226518 0.00320406 -0.00144362
0.000137861 0.00317237 -0.00141269
3.84146e-05 0.00307845 -0.00137418
1.92073e-05 0.00245515 -0.00115062
1.35115e-05 0.00362581 -0.00150611
1.06631e-05 0.00461557 -0.00185932
8.11279e-07 0.00473682 -0.00194349
1.69346e-07 0.00475091 -0.00198588
1.39553e-05 0.00474876 -0.00201012
4.20154e-05 0.00474555 -0.00202394
8.21866e-05 0.00474508 -0.00203126
0.000131623 0.0047485 -0.00203381
0.000186951 0.00475611 -0.00203181
0.00024406 0.00476787 -0.00202479
0.000298123 0.00478325 -0.00201206
0.000343488 0.00480104 -0.00199289
0.000374027 0.00481902 -0.00196711
0.000383583 0.00483434 -0.00193503
0.000367104 0.0048428 -0.00189792
0.000320804 0.00483986 -0.00185785
0.000243612 0.00482043 -0.00181743
0.000138698 0.00477392 -0.00177891
2.36019e-05 0.00462519 -0.00173126
1.18009e-05 0.00363241 -0.00145196
3.64751e-05 0.00507698 -0.00185221
4.54829e-05 0.00656266 -0.00228054
3.81648e-05 0.00675992 -0.00238045
3.62604e-05 0.006788 -0.00243062
4.78556e-05 0.0067882 -0.00245917
7.38926e-05 0.00678415 -0.00247523
0.000112703 0.00678181 -0.00248355
0.00016158 0.00678308 -0.00248627
0.000217217 0.00678868 -0.00248379
0.000275438 0.00679878 -0.00247552
0.000331183 0.00681289 -0.00246055
0.000378196 0.0068298 -0.00243805
0.000409808 0.00684697 -0.00240759
0.000418555 0.006861 -0.00236963
0.000398128 0.00686703 -0.00232532
0.000343823 0.00685909 -0.00227704
0.000253507 0.00683034 -0.00222823
0.000130607 0.00676435 -0.00218196
-3.77852e-07 0.00654102 -0.00212503
-1.88926e-07 0.0050652 -0.00178488
6.57842e-05 0.00680791 -0.00221542
9.15189e-05 0.00892403 -0.00272
8.90363e-05 0.00922459 -0.00283463
8.63946e-05 0.00927309 -0.00289216
9.52623e-05 0.00927765 -0.00292491
0.000118109 0.00927326 -0.00294328
0.000153906 0.00926873 -0.00295285
0.000200314 0.00926703 -0.00295609
0.000254174 0.00926926 -0.00295354
0.0003113 0.00927591 -0.0029446
0.000366537 0.00928668 -0.00292805
0.000413109 0.00930047 -0.002903
0.000443719 0.00931461 -0.00286845
0.00044995 0.0093249 -0.00282492
0.000423892 0.00932579 -0.00277378
0.000359564 0.00931027 -0.00271755
0.000253928 0.00926944 -0.00266032
0.000111236 0.00917852 -0.00260629
-3.56978e-05 0.00885658 -0.0025403
-1.78489e-05 0.00676989 -0.00213661
0.000101846 0.00882372 -0.00258109
0.000149664 0.011717 -0.00315944
0.000154674 0.012152 -0.00328661
0.00015205 0.0122281 -0.0033504
0.000157751 0.0122392 -0.00338694
0.000176263 0.0122352 -0.00340756
0.000207477 0.0122285 -0.00341849
0.000249385 0.0122233 -0.00342271
0.000299191 0.0122212 -0.00342073
0.000352831 0.0122231 -0.00341192
0.000405203 0.012229 -0.0033947
0.00044911 0.0122376 -0.00336823
0.000476347 0.0122466 -0.00333106
0.000477647 0.0122511 -0.00328327
0.000443822 0.0122448 -0.00322623
0.000367393 0.0122194 -0.00316279
0.000244165 0.0121635 -0.00309776
7.96176e-05 0.0120416 -0.00303636
-8.31103e-05 0.011593 -0.00296188
-4.15552e-05 0.00875419 -0.00249392
0.000144384 0.0111173 -0.00293511
0.00021962 0.0149431 -0.00358142
0.000234817 0.0155466 -0.00371778
0.000233059 0.0156579 -0.00378601
0.000235348 0.0156777 -0.0038254
0.000248599 0.0156749 -0.00384794
0.000273768 0.0156663 -0.00386032
0.000309419 0.0156574 -0.00386584
0.000353202 0.0156506 -0.00386506
0.000401174 0.0156471 -0.00385751
0.000448178 0.0156474 -0.00384116
0.000487177 0.0156499 -0.00381467
0.000508937 0.0156523 -0.00377667
0.000503167 0.0156497 -0.00372671