# vtk DataFile Version 2.0 
Visualization 
ASCII 
DATASET STRUCTURED_GRID 
DIMENSIONS 21 21 11
POINTS 4851 float
-0.1 -0.1 0.9
0 -0.1 0.9
0.1 -0.1 0.9
0.2 -0.1 0.9
0.3 -0.1 0.9
0.4 -0.1 0.9
0.5 -0.1 0.9
0.6 -0.1 0.9
0.7 -0.1 0.9
0.8 -0.1 0.9
0.9 -0.1 0.9
1 -0.1 0.9
1.1 -0.1 0.9
1.2 -0.1 0.9
1.3 -0.1 0.9
1.4 -0.1 0.9
1.5 -0.1 0.9
1.6 -0.1 0.9
1.7 -0.1 0.9
1.8 -0.1 0.9
1.9 -0.1 0.9
-0.1 0 0.9
0 0 0.9
0.1 0 0.9
0.2 0 0.9
0.3 0 0.9
0.4 0 0.9
0.5 0 0.9
0.6 0 0.9
0.7 0 0.9
0.8 0 0.9
0.9 0 0.9
1 0 0.9
1.1 0 0.9
1.2 0 0.9
1.3 0 0.9
1.4 0 0.9
1.5 0 0.9
1.6 0 0.9
1.7 0 0.9
1.8 0 0.9
1.9 0 0.9
-0.1 0.1 0.9
0 0.1 0.9
0.1 0.1 0.9
0.2 0.1 0.9
0.3 0.1 0.9
0.4 0.1 0.9
0.5 0.1 0.9
0.6 0.1 0.9
0.7 0.1 0.9
0.8 0.1 0.9
0.9 0.1 0.9
1 0.1 0.9
1.1 0.1 0.9
1.2 0.1 0.9
1.3 0.1 0.9
1.4 0.1 0.9
1.5 0.1 0.9
1.6 0.1 0.9
1.7 0.1 0.9
1.8 0.1 0.9
1.9 0.1 0.9
-0.1 0.2 0.9
0 0.2 0.9
0.1 0.2 0.9
0.2 0.2 0.9
0.3 0.2 0.9
0.4 0.2 0.9
0.5 0.2 0.9
0.6 0.2 0.9
0.7 0.2 0.9
0.8 0.2 0.9
0.9 0.2 0.9
1 0.2 0.9
1.1 0.2 0.9
1.2 0.2 0.9
1.3 0.2 0.9
1.4 0.2 0.9
1.5 0.2 0.9
1.6 0.2 0.9
1.7 0.2 0.9
1.8 0.2 0.9
1.9 0.2 0.9
-0.1 0.3 0.9
0 0.3 0.9
0.1 0.3 0.9
0.2 0.3 0.9
0.3 0.3 0.9
0.4 0.3 0.9
0.5 0.3 0.9
0.6 0.3 0.9
0.7 0.3 0.9
0.8 0.3 0.9
0.9 0.3 0.9
1 0.3 0.9
1.1 0.3 0.9
1.2 0.3 0.9
1.3 0.3 0.9
1.4 0.3 0.9
1.5 0.3 0.9
1.6 0.3 0.9
1.7 0.3 0.9
1.8 0.3 0.9
1.9 0.3 0.9
-0.1 0.4 0.9
0 0.4 0.9
0.1 0.4 0.9
0.2 0.4 0.9
0.3 0.4 0.9
0.4 0.4 0.9
0.5 0.4 0.9
0.6 0.4 0.9
0.7 0.4 0.9
0.8 0.4 0.9
0.9 0.4 0.9
1 0.4 0.9
1.1 0.4 0.9
1.2 0.4 0.9
1.3 0.4 0.9
1.4 0.4 0.9
1.5 0.4 0.9
1.6 0.4 0.9
1.7 0.4 0.9
1.8 0.4 0.9
1.9 0.4 0.9
-0.1 0.5 0.9
0 0.5 0.9
0.1 0.5 0.9
0.2 0.5 0.9
0.3 0.5 0.9
0.4 0.5 0.9
0.5 0.5 0.9
0.6 0.5 0.9
0.7 0.5 0.9
0.8 0.5 0.9
0.9 0.5 0.9
1 0.5 0.9
1.1 0.5 0.9
1.2 0.5 0.9
1.3 0.5 0.9
1.4 0.5 0.9
1.5 0.5 0.9
1.6 0.5 0.9
1.7 0.5 0.9
1.8 0.5 0.9
1.9 0.5 0.9
-0.1 0.6 0.9
0 0.6 0.9
0.1 0.6 0.9
0.2 0.6 0.9
0.3 0.6 0.9
0.4 0.6 0.9
0.5 0.6 0.9
0.6 0.6 0.9
0.7 0.6 0.9
0.8 0.6 0.9
0.9 0.6 0.9
1 0.6 0.9
1.1 0.6 0.9
1.2 0.6 0.9
1.3 0.6 0.9
1.4 0.6 0.9
1.5 0.6 0.9
1.6 0.6 0.9
1.7 0.6 0.9
1.8 0.6 0.9
1.9 0.6 0.9
-0.1 0.7 0.9
0 0.7 0.9
0.1 0.7 0.9
0.2 0.7 0.9
0.3 0.7 0.9
0.4 0.7 0.9
0.5 0.7 0.9
0.6 0.7 0.9
0.7 0.7 0.9
0.8 0.7 0.9
0.9 0.7 0.9
1 0.7 0.9
1.1 0.7 0.9
1.2 0.7 0.9
1.3 0.7 0.9
1.4 0.7 0.9
1.5 0.7 0.9
1.6 0.7 0.9
1.7 0.7 0.9
1.8 0.7 0.9
1.9 0.7 0.9
-0.1 0.8 0.9
0 0.8 0.9
0.1 0.8 0.9
0.2 0.8 0.9
0.3 0.8 0.9
0.4 0.8 0.9
0.5 0.8 0.9
0.6 0.8 0.9
0.7 0.8 0.9
0.8 0.8 0.9
0.9 0.8 0.9
1 0.8 0.9
1.1 0.8 0.9
1.2 0.8 0.9
1.3 0.8 0.9
1.4 0.8 0.9
1.5 0.8 0.9
1.6 0.8 0.9
1.7 0.8 0.9
1.8 0.8 0.9
1.9 0.8 0.9
-0.1 0.9 0.9
0 0.9 0.9
0.1 0.9 0.9
0.2 0.9 0.9
0.3 0.9 0.9
0.4 0.9 0.9
0.5 0.9 0.9
0.6 0.9 0.9
0.7 0.9 0.9
0.8 0.9 0.9
0.9 0.9 0.9
1 0.9 0.9
1.1 0.9 0.9
1.2 0.9 0.9
1.3 0.9 0.9
1.4 0.9 0.9
1.5 0.9 0.9
1.6 0.9 0.9
1.7 0.9 0.9
1.8 0.9 0.9
1.9 0.9 0.9
-0.1 1 0.9
0 1 0.9
0.1 1 0.9
0.2 1 0.9
0.3 1 0.9
0.4 1 0.9
0.5 1 0.9
0.6 1 0.9
0.7 1 0.9
0.8 1 0.9
0.9 1 0.9
1 1 0.9
1.1 1 0.9
1.2 1 0.9
1.3 1 0.9
1.4 1 0.9
1.5 1 0.9
1.6 1 0.9
1.7 1 0.9
1.8 1 0.9
1.9 1 0.9
-0.1 1.1 0.9
0 1.1 0.9
0.1 1.1 0.9
0.2 1.1 0.9
0.3 1.1 0.9
0.4 1.1 0.9
0.5 1.1 0.9
0.6 1.1 0.9
0.7 1.1 0.9
0.8 1.1 0.9
0.9 1.1 0.9
1 1.1 0.9
1.1 1.1 0.9
1.2 1.1 0.9
1.3 1.1 0.9
1.4 1.1 0.9
1.5 1.1 0.9
1.6 1.1 0.9
1.7 1.1 0.9
1.8 1.1 0.9
1.9 1.1 0.9
-0.1 1.2 0.9
0 1.2 0.9
0.1 1.2 0.9
0.2 1.2 0.9
0.3 1.2 0.9
0.4 1.2 0.9
0.5 1.2 0.9
0.6 1.2 0.9
0.7 1.2 0.9
0.8 1.2 0.9
0.9 1.2 0.9
1 1.2 0.9
1.1 1.2 0.9
1.2 1.2 0.9
1.3 1.2 0.9
1.4 1.2 0.9
1.5 1.2 0.9
1.6 1.2 0.9
1.7 1.2 0.9
1.8 1.2 0.9
1.9 1.2 0.9
-0.1 1.3 0.9
0 1.3 0.9
0.1 1.3 0.9
0.2 1.3 0.9
0.3 1.3 0.9
0.4 1.3 0.9
0.5 1.3 0.9
0.6 1.3 0.9
0.7 1.3 0.9
0.8 1.3 0.9
0.9 1.3 0.9
1 1.3 0.9
1.1 1.3 0.9
1.2 1.3 0.9
1.3 1.3 0.9
1.4 1.3 0.9
1.5 1.3 0.9
1.6 1.3 0.9
1.7 1.3 0.9
1.8 1.3 0.9
1.9 1.3 0.9
-0.1 1.4 0.9
0 1.4 0.9
0.1 1.4 0.9
0.2 1.4 0.9
0.3 1.4 0.9
0.4 1.4 0.9
0.5 1.4 0.9
0.6 1.4 0.9
0.7 1.4 0.9
0.8 1.4 0.9
0.9 1.4 0.9
1 1.4 0.9
1.1 1.4 0.9
1.2 1.4 0.9
1.3 1.4 0.9
1.4 1.4 0.9
1.5 1.4 0.9
1.6 1.4 0.9
1.7 1.4 0.9
1.8 1.4 0.9
1.9 1.4 0.9
-0.1 1.5 0.9
0 1.5 0.9
0.1 1.5 0.9
0.2 1.5 0.9
0.3 1.5 0.9
0.4 1.5 0.9
0.5 1.5 0.9
0.6 1.5 0.9
0.7 1.5 0.9
0.8 1.5 0.9
0.9 1.5 0.9
1 1.5 0.9
1.1 1.5 0.9
1.2 1.5 0.9
1.3 1.5 0.9
1.4 1.5 0.9
1.5 1.5 0.9
1.6 1.5 0.9
1.7 1.5 0.9
1.8 1.5 0.9
1.9 1.5 0.9
-0.1 1.6 0.9
0 1.6 0.9
0.1 1.6 0.9
0.2 1.6 0.9
0.3 1.6 0.9
0.4 1.6 0.9
0.5 1.6 0.9
0.6 1.6 0.9
0.7 1.6 0.9
0.8 1.6 0.9
0.9 1.6 0.9
1 1.6 0.9
1.1 1.6 0.9
1.2 1.6 0.9
1.3 1.6 0.9
1.4 1.6 0.9
1.5 1.6 0.9
1.6 1.6 0.9
1.7 1.6 0.9
1.8 1.6 0.9
1.9 1.6 0.9
-0.1 1.7 0.9
0 1.7 0.9
0.1 1.7 0.9
0.2 1.7 0.9
0.3 1.7 0.9
0.4 1.7 0.9
0.5 1.7 0.9
0.6 1.7 0.9
0.7 1.7 0.9
0.8 1.7 0.9
0.9 1.7 0.9
1 1.7 0.9
1.1 1.7 0.9
1.2 1.7 0.9
1.3 1.7 0.9
1.4 1.7 0.9
1.5 1.7 0.9
1.6 1.7 0.9
1.7 1.7 0.9
1.8 1.7 0.9
1.9 1.7 0.9
-0.1 1.8 0.9
0 1.8 0.9
0.1 1.8 0.9
0.2 1.8 0.9
0.3 1.8 0.9
0.4 1.8 0.9
0.5 1.8 0.9
0.6 1.8 0.9
0.7 1.8 0.9
0.8 1.8 0.9
0.9 1.8 0.9
1 1.8 0.9
1.1 1.8 0.9
1.2 1.8 0.9
1.3 1.8 0.9
1.4 1.8 0.9
1.5 1.8 0.9
1.6 1.8 0.9
1.7 1.8 0.9
1.8 1.8 0.9
1.9 1.8 0.9
-0.1 1.9 0.9
0 1.9 0.9
0.1 1.9 0.9
0.2 1.9 0.9
0.3 1.9 0.9
0.4 1.9 0.9
0.5 1.9 0.9
0.6 1.9 0.9
0.7 1.9 0.9
0.8 1.9 0.9
0.9 1.9 0.9
1 1.9 0.9
1.1 1.9 0.9
1.2 1.9 0.9
1.3 1.9 0.9
1.4 1.9 0.9
1.5 1.9 0.9
1.6 1.9 0.9
1.7 1.9 0.9
1.8 1.9 0.9
1.9 1.9 0.9
-0.1 -0.1 1
0 -0.1 1
0.1 -0.1 1
0.2 -0.1 1
0.3 -0.1 1
0.4 -0.1 1
0.5 -0.1 1
0.6 -0.1 1
0.7 -0.1 1
0.8 -0.1 1
0.9 -0.1 1
1 -0.1 1
1.1 -0.1 1
1.2 -0.1 1
1.3 -0.1 1
1.4 -0.1 1
1.5 -0.1 1
1.6 -0.1 1
1.7 -0.1 1
1.8 -0.1 1
1.9 -0.1 1
-0.1 0 1
0 0 1
0.1 0 1
0.2 0 1
0.3 0 1
0.4 0 1
0.5 0 1
0.6 0 1
0.7 0 1
0.8 0 1
0.9 0 1
1 0 1
1.1 0 1
1.2 0 1
1.3 0 1
1.4 0 1
1.5 0 1
1.6 0 1
1.7 0 1
1.8 0 1
1.9 0 1
-0.1 0.1 1
0 0.1 1
0.1 0.1 1
0.2 0.1 1
0.3 0.1 1
0.4 0.1 1
0.5 0.1 1
0.6 0.1 1
0.7 0.1 1
0.8 0.1 1
0.9 0.1 1
1 0.1 1
1.1 0.1 1
1.2 0.1 1
1.3 0.1 1
1.4 0.1 1
1.5 0.1 1
1.6 0.1 1
1.7 0.1 1
1.8 0.1 1
1.9 0.1 1
-0.1 0.2 1
0 0.2 1
0.1 0.2 1
0.2 0.2 1
0.3 0.2 1
0.4 0.2 1
0.5 0.2 1
0.6 0.2 1
0.7 0.2 1
0.8 0.2 1
0.9 0.2 1
1 0.2 1
1.1 0.2 1
1.2 0.2 1
1.3 0.2 1
1.4 0.2 1
1.5 0.2 1
1.6 0.2 1
1.7 0.2 1
1.8 0.2 1
1.9 0.2 1
-0.1 0.3 1
0 0.3 1
0.1 0.3 1
0.2 0.3 1
0.3 0.3 1
0.4 0.3 1
0.5 0.3 1
0.6 0.3 1
0.7 0.3 1
0.8 0.3 1
0.9 0.3 1
1 0.3 1
1.1 0.3 1
1.2 0.3 1
1.3 0.3 1
1.4 0.3 1
1.5 0.3 1
1.6 0.3 1
1.7 0.3 1
1.8 0.3 1
1.9 0.3 1
-0.1 0.4 1
0 0.4 1
0.1 0.4 1
0.2 0.4 1
0.3 0.4 1
0.4 0.4 1
0.5 0.4 1
0.6 0.4 1
0.7 0.4 1
0.8 0.4 1
0.9 0.4 1
1 0.4 1
1.1 0.4 1
1.2 0.4 1
1.3 0.4 1
1.4 0.4 1
1.5 0.4 1
1.6 0.4 1
1.7 0.4 1
1.8 0.4 1
1.9 0.4 1
-0.1 0.5 1
0 0.5 1
0.1 0.5 1
0.2 0.5 1
0.3 0.5 1
0.4 0.5 1
0.5 0.5 1
0.6 0.5 1
0.7 0.5 1
0.8 0.5 1
0.9 0.5 1
1 0.5 1
1.1 0.5 1
1.2 0.5 1
1.3 0.5 1
1.4 0.5 1
1.5 0.5 1
1.6 0.5 1
1.7 0.5 1
1.8 0.5 1
1.9 0.5 1
-0.1 0.6 1
0 0.6 1
0.1 0.6 1
0.2 0.6 1
0.3 0.6 1
0.4 0.6 1
0.5 0.6 1
0.6 0.6 1
0.7 0.6 1
0.8 0.6 1
0.9 0.6 1
1 0.6 1
1.1 0.6 1
1.2 0.6 1
1.3 0.6 1
1.4 0.6 1
1.5 0.6 1
1.6 0.6 1
1.7 0.6 1
1.8 0.6 1
1.9 0.6 1
-0.1 0.7 1
0 0.7 1
0.1 0.7 1
0.2 0.7 1
0.3 0.7 1
0.4 0.7 1
0.5 0.7 1
0.6 0.7 1
0.7 0.7 1
0.8 0.7 1
0.9 0.7 1
1 0.7 1
1.1 0.7 1
1.2 0.7 1
1.3 0.7 1
1.4 0.7 1
1.5 0.7 1
1.6 0.7 1
1.7 0.7 1
1.8 0.7 1
1.9 0.7 1
-0.1 0.8 1
0 0.8 1
0.1 0.8 1
0.2 0.8 1
0.3 0.8 1
0.4 0.8 1
0.5 0.8 1
0.6 0.8 1
0.7 0.8 1
0.8 0.8 1
0.9 0.8 1
1 0.8 1
1.1 0.8 1
1.2 0.8 1
1.3 0.8 1
1.4 0.8 1
1.5 0.8 1
1.6 0.8 1
1.7 0.8 1
1.8 0.8 1
1.9 0.8 1
-0.1 0.9 1
0 0.9 1
0.1 0.9 1
0.2 0.9 1
0.3 0.9 1
0.4 0.9 1
0.5 0.9 1
0.6 0.9 1
0.7 0.9 1
0.8 0.9 1
0.9 0.9 1
1 0.9 1
1.1 0.9 1
1.2 0.9 1
1.3 0.9 1
1.4 0.9 1
1.5 0.9 1
1.6 0.9 1
1.7 0.9 1
1.8 0.9 1
1.9 0.9 1
-0.1 1 1
0 1 1
0.1 1 1
0.2 1 1
0.3 1 1
0.4 1 1
0.5 1 1
0.6 1 1
0.7 1 1
0.8 1 1
0.9 1 1
1 1 1
1.1 1 1
1.2 1 1
1.3 1 1
1.4 1 1
1.5 1 1
1.6 1 1
1.7 1 1
1.8 1 1
1.9 1 1
-0.1 1.1 1
0 1.1 1
0.1 1.1 1
0.2 1.1 1
0.3 1.1 1
0.4 1.1 1
0.5 1.1 1
0.6 1.1 1
0.7 1.1 1
0.8 1.1 1
0.9 1.1 1
1 1.1 1
1.1 1.1 1
1.2 1.1 1
1.3 1.1 1
1.4 1.1 1
1.5 1.1 1
1.6 1.1 1
1.7 1.1 1
1.8 1.1 1
1.9 1.1 1
-0.1 1.2 1
0 1.2 1
0.1 1.2 1
0.2 1.2 1
0.3 1.2 1
0.4 1.2 1
0.5 1.2 1
0.6 1.2 1
0.7 1.2 1
0.8 1.2 1
0.9 1.2 1
1 1.2 1
1.1 1.2 1
1.2 1.2 1
1.3 1.2 1
1.4 1.2 1
1.5 1.2 1
1.6 1.2 1
1.7 1.2 1
1.8 1.2 1
1.9 1.2 1
-0.1 1.3 1
0 1.3 1
0.1 1.3 1
0.2 1.3 1
0.3 1.3 1
0.4 1.3 1
0.5 1.3 1
0.6 1.3 1
0.7 1.3 1
0.8 1.3 1
0.9 1.3 1
1 1.3 1
1.1 1.3 1
1.2 1.3 1
1.3 1.3 1
1.4 1.3 1
1.5 1.3 1
1.6 1.3 1
1.7 1.3 1
1.8 1.3 1
1.9 1.3 1
-0.1 1.4 1
0 1.4 1
0.1 1.4 1
0.2 1.4 1
0.3 1.4 1
0.4 1.4 1
0.5 1.4 1
0.6 1.4 1
0.7 1.4 1
0.8 1.4 1
0.9 1.4 1
1 1.4 1
1.1 1.4 1
1.2 1.4 1
1.3 1.4 1
1.4 1.4 1
1.5 1.4 1
1.6 1.4 1
1.7 1.4 1
1.8 1.4 1
1.9 1.4 1
-0.1 1.5 1
0 1.5 1
0.1 1.5 1
0.2 1.5 1
0.3 1.5 1
0.4 1.5 1
0.5 1.5 1
0.6 1.5 1
0.7 1.5 1
0.8 1.5 1
0.9 1.5 1
1 1.5 1
1.1 1.5 1
1.2 1.5 1
1.3 1.5 1
1.4 1.5 1
1.5 1.5 1
1.6 1.5 1
1.7 1.5 1
1.8 1.5 1
1.9 1.5 1
-0.1 1.6 1
0 1.6 1
0.1 1.6 1
0.2 1.6 1
0.3 1.6 1
0.4 1.6 1
0.5 1.6 1
0.6 1.6 1
0.7 1.6 1
0.8 1.6 1
0.9 1.6 1
1 1.6 1
1.1 1.6 1
1.2 1.6 1
1.3 1.6 1
1.4 1.6 1
1.5 1.6 1
1.6 1.6 1
1.7 1.6 1
1.8 1.6 1
1.9 1.6 1
-0.1 1.7 1
0 1.7 1
0.1 1.7 1
0.2 1.7 1
0.3 1.7 1
0.4 1.7 1
0.5 1.7 1
0.6 1.7 1
0.7 1.7 1
0.8 1.7 1
0.9 1.7 1
1 1.7 1
1.1 1.7 1
1.2 1.7 1
1.3 1.7 1
1.4 1.7 1
1.5 1.7 1
1.6 1.7 1
1.7 1.7 1
1.8 1.7 1
1.9 1.7 1
-0.1 1.8 1
0 1.8 1
0.1 1.8 1
0.2 1.8 1
0.3 1.8 1
0.4 1.8 1
0.5 1.8 1
0.6 1.8 1
0.7 1.8 1
0.8 1.8 1
0.9 1.8 1
1 1.8 1
1.1 1.8 1
1.2 1.8 1
1.3 1.8 1
1.4 1.8 1
1.5 1.8 1
1.6 1.8 1
1.7 1.8 1
1.8 1.8 1
1.9 1.8 1
-0.1 1.9 1
0 1.9 1
0.1 1.9 1
0.2 1.9 1
0.3 1.9 1
0.4 1.9 1
0.5 1.9 1
0.6 1.9 1
0.7 1.9 1
0.8 1.9 1
0.9 1.9 1
1 1.9 1
1.1 1.9 1
1.2 1.9 1
1.3 1.9 1
1.4 1.9 1
1.5 1.9 1
1.6 1.9 1
1.7 1.9 1
1.8 1.9 1
1.9 1.9 1
-0.1 -0.1 1.1
0 -0.1 1.1
0.1 -0.1 1.1
0.2 -0.1 1.1
0.3 -0.1 1.1
0.4 -0.1 1.1
0.5 -0.1 1.1
0.6 -0.1 1.1
0.7 -0.1 1.1
0.8 -0.1 1.1
0.9 -0.1 1.1
1 -0.1 1.1
1.1 -0.1 1.1
1.2 -0.1 1.1
1.3 -0.1 1.1
1.4 -0.1 1.1
1.5 -0.1 1.1
1.6 -0.1 1.1
1.7 -0.1 1.1
1.8 -0.1 1.1
1.9 -0.1 1.1
-0.1 0 1.1
0 0 1.1
0.1 0 1.1
0.2 0 1.1
0.3 0 1.1
0.4 0 1.1
0.5 0 1.1
0.6 0 1.1
0.7 0 1.1
0.8 0 1.1
0.9 0 1.1
1 0 1.1
1.1 0 1.1
1.2 0 1.1
1.3 0 1.1
1.4 0 1.1
1.5 0 1.1
[...]
CELL_DATA 4000
VECTORS velocity double 
5.094e-05 -8.26466e-05 0.00368015
8.48028e-05 -7.83319e-05 0.00535203
8.63843e-05 -7.81327e-05 0.00579943
6.96237e-05 -8.23267e-05 0.00593974
4.31823e-05 -8.61969e-05 0.00598862
1.12026e-05 -8.92519e-05 0.00599295
-2.35987e-05 -9.21083e-05 0.00596341
-5.88121e-05 -9.51919e-05 0.00590421
-9.1811e-05 -9.85488e-05 0.00581844
-0.000120089 -0.000101948 0.00570954
-0.000141372 -0.000104915 0.00558194
-0.000153877 -0.000106799 0.00544212
-0.000157018 -0.000106938 0.00529883
-0.000151855 -0.000104633 0.00516275
-0.000141501 -9.95149e-05 0.00504598
-0.000131193 -9.14503e-05 0.0049602
-0.000127924 -8.15398e-05 0.00491002
-0.000136087 -7.17356e-05 0.00486166
-0.000147276 -6.51326e-05 0.00460847
-7.36382e-05 -5.07e-05 0.00326149
7.54723e-05 -0.000323558 0.00551206
0.000115587 -0.000377785 0.00852236
0.000114585 -0.000398175 0.00933956
9.13847e-05 -0.000415578 0.00957478
5.55478e-05 -0.000427123 0.00964817
1.12232e-05 -0.000434534 0.00964982
-3.86594e-05 -0.000440449 0.00959565
-9.10706e-05 -0.000446436 0.00949051
-0.00014241 -0.000452825 0.00933884
-0.000188857 -0.000459095 0.00914632
-0.000226621 -0.000464049 0.00892061
-0.00025245 -0.000466121 0.00867281
-0.000264351 -0.000463593 0.00841789
-0.000262581 -0.000454742 0.00817498
-0.000250076 -0.000438331 0.00796624
-0.000233766 -0.000414204 0.00781518
-0.000223709 -0.000384195 0.00773411
-0.000229254 -0.000353031 0.00766192
-0.000236987 -0.000326066 0.00721068
-0.000118494 -0.000266085 0.00484271
6.41245e-05 -0.000757266 0.006122
8.7976e-05 -0.000942355 0.00933437
7.40667e-05 -0.00100692 0.010164
4.2318e-05 -0.00104779 0.0103933
4.44584e-07 -0.00107117 0.0104674
-4.9127e-05 -0.00108415 0.0104694
-0.000104405 -0.001093 0.0104076
-0.000162483 -0.00110109 0.0102833
-0.000219364 -0.00110919 0.0101004
-0.000270404 -0.00111654 0.00986492
-0.000310823 -0.00112127 0.00958566
-0.00033629 -0.00112078 0.00927572
-0.000343784 -0.001112 0.00895326
-0.000332717 -0.00109197 0.00864261
-0.000306004 -0.00105819 0.00837349
-0.000271436 -0.00101014 0.00818019
-0.000241956 -0.000950394 0.00809166
-0.000231769 -0.000886314 0.00806484
-0.000232787 -0.000824024 0.00770265
-0.000116394 -0.000669416 0.00531226
2.78381e-05 -0.00139074 0.00621839
1.69598e-05 -0.00179027 0.00905913
-1.87823e-05 -0.00192497 0.00969434
-6.19384e-05 -0.00200062 0.0098587
-0.000109442 -0.00204068 0.00992147
-0.000162168 -0.0020609 0.00992548
-0.000219705 -0.00207277 0.00986206
-0.000279456 -0.00208217 0.00972712
-0.00033713 -0.00209075 0.00952303
-0.000387352 -0.00209755 0.00925554
-0.000424254 -0.00209996 0.00893388
-0.000442158 -0.00209414 0.00857233
-0.000436924 -0.00207548 0.00819166
-0.000406841 -0.00203926 0.00782085
-0.000354711 -0.0019817 0.00749734
-0.000289404 -0.00190129 0.0072677
-0.000227163 -0.00180128 0.00718488
-0.000189231 -0.00169154 0.00725485
-0.000180965 -0.00157596 0.00716772
-9.04823e-05 -0.00126212 0.00528903
-3.1152e-05 -0.00222123 0.00578729
-9.48921e-05 -0.00293044 0.00777299
-0.000161633 -0.00316498 0.0080396
-0.000219276 -0.00328811 0.00808587
-0.000272276 -0.00335048 0.00812417
-0.000326407 -0.00338013 0.00812886
-0.000383587 -0.00339548 0.00806633
-0.000441952 -0.00340575 0.00792447
-0.000496939 -0.00341382 0.00770355
-0.00054237 -0.0034187 0.00740871
-0.00057111 -0.00341693 0.00704915
-0.00057592 -0.00340333 0.00664005
-0.000551037 -0.00337139 0.0062048
-0.00049362 -0.00331421 0.00577733
-0.000405791 -0.00322596 0.00540307
-0.000297636 -0.00310404 0.00514358
-0.000189387 -0.00295191 0.00508267
-0.000112132 -0.00278206 0.00530142
-9.15846e-05 -0.00259036 0.00565531
-4.57923e-05 -0.0020397 0.00475424
-0.000114395 -0.00322424 0.00462099
-0.000250643 -0.00434601 0.00516569
-0.00035847 -0.00471391 0.00485592
-0.00043414 -0.00489853 0.00471626
-0.000492671 -0.00498944 0.00470981
-0.000546484 -0.00503105 0.00471037
-0.000600669 -0.00505065 0.00464943
-0.000654524 -0.00506175 0.00450403
-0.000703369 -0.00506883 0.00427123
-0.000740163 -0.005071 0.00395514
-0.000756349 -0.00506385 0.00356453
-0.00074277 -0.00504063 0.00311531
-0.000691549 -0.00499269 0.00263372
-0.000598039 -0.00491036 0.0021583
-0.000463679 -0.00478519 0.00174318
-0.000299401 -0.00461258 0.00146661
-0.0001306 -0.00439615 0.00145223
-3.2352e-07 -0.00414946 0.00188393
3.67685e-05 -0.00385425 0.00287292
1.83842e-05 -0.00298075 0.00351066
-0.000224365 -0.00434072 0.00246088
-0.000454757 -0.00597578 0.000828487
-0.000614679 -0.006512 -0.000314936
-0.000712246 -0.00677215 -0.000727548
-0.000776322 -0.0068976 -0.000807343
-0.00082792 -0.00695368 -0.000818911
-0.000876341 -0.00697853 -0.000878103
-0.000922484 -0.00699075 -0.00102273
-0.000961716 -0.00699671 -0.00126019
-0.000985998 -0.00699586 -0.00158815
-0.000985233 -0.00698292 -0.00199855
-0.000948082 -0.00694933 -0.00247513
-0.000863858 -0.00688395 -0.00298945
-0.000725579 -0.00677392 -0.00349815
-0.000533197 -0.00660732 -0.00393795
-0.000298711 -0.00637661 -0.0042108
-5.25242e-05 -0.00608401 -0.00414394
0.000146678 -0.00574326 -0.00341615
0.000206036 -0.00531407 -0.00155514
0.000103018 -0.00403048 0.00131618
-0.000361362 -0.00546408 -0.000939923
-0.000707574 -0.00769533 -0.00563352
-0.00093047 -0.00843216 -0.00792338
-0.00105352 -0.0087798 -0.00871831
-0.001123 -0.00894452 -0.00890904
-0.00117054 -0.00901697 -0.00894478
-0.00121053 -0.00904796 -0.00900396
-0.00124588 -0.00906192 -0.00914415
-0.00127234 -0.00906731 -0.0093786
-0.00128091 -0.00906398 -0.00970746
-0.00125966 -0.00904608 -0.0101239
-0.00119482 -0.00900334 -0.0106115
-0.00107239 -0.00892166 -0.0111402
-0.00088209 -0.00878473 -0.0116618
-0.000621432 -0.00857594 -0.0121031
-0.000302328 -0.0082833 -0.0123436
3.89231e-05 -0.00790605 -0.0121494
0.000324756 -0.00745556 -0.0110223
0.000414087 -0.00686036 -0.00800249
0.000207044 -0.00508959 -0.0020637
-0.000521916 -0.00643239 -0.00577878
-0.00100291 -0.00930431 -0.0145383
-0.00129782 -0.0102651 -0.0183352
-0.00144907 -0.0107071 -0.0196411
-0.00152351 -0.0109128 -0.0199883
-0.00156523 -0.0110022 -0.0200633
-0.00159458 -0.0110397 -0.0201256
-0.00161676 -0.0110561 -0.020258
-0.00162811 -0.0110621 -0.0204814
-0.001619 -0.011058 -0.0207988
-0.00157568 -0.0110377 -0.0212047
-0.00148136 -0.0109895 -0.0216835
-0.00131855 -0.0108968 -0.0222035
-0.00107233 -0.0107388 -0.0227121
-0.000736254 -0.0104934 -0.0231255
-0.000320886 -0.010142 -0.0232981
0.00013197 -0.00967854 -0.0229213
0.000523124 -0.0091073 -0.0212744
0.000652618 -0.00831706 -0.0167681
0.000326309 -0.00600822 -0.00681825
-0.000696747 -0.00702772 -0.0121447
-0.00132376 -0.0105209 -0.0260197
-0.00169518 -0.0117115 -0.0317068
-0.00187526 -0.0122456 -0.0336627
-0.00195378 -0.0124892 -0.0342162
-0.00198831 -0.0125938 -0.0343479
-0.00200571 -0.0126375 -0.0344173
-0.00201368 -0.0126568 -0.0345392
-0.00200933 -0.0126649 -0.0347443
-0.00198284 -0.0126629 -0.0350381
-0.00191884 -0.0126447 -0.0354167
-0.00179773 -0.0125979 -0.0358655
-0.00159757 -0.0125037 -0.036352
-0.00129776 -0.0123372 -0.0368193
-0.00088584 -0.0120696 -0.0371737
-0.000368951 -0.0116739 -0.0372399
0.000207753 -0.0111337 -0.0366211
0.000720798 -0.0104415 -0.0343241
0.00090211 -0.00943671 -0.0279828
0.000451055 -0.00658373 -0.0130346
-0.000868851 -0.00698781 -0.0199435
-0.00163879 -0.0109908 -0.0399052
-0.00208311 -0.0123899 -0.0478457
-0.00228906 -0.0129997 -0.0505848
-0.00237001 -0.0132707 -0.0513922
-0.00239661 -0.0133853 -0.0515973
-0.00240204 -0.0134335 -0.051679
-0.0023967 -0.0134558 -0.0517888
-0.00237866 -0.0134677 -0.0519694
-0.00233834 -0.0134713 -0.0522299
-0.0022594 -0.0134611 -0.0525674
-0.00211986 -0.0134252 -0.052968
-0.00189305 -0.0133438 -0.0533993
-0.0015515 -0.0131886 -0.0538019
-0.00107479 -0.0129244 -0.0540713
-0.000462255 -0.0125131 -0.0539999
0.000239816 -0.0119242 -0.0530862
0.000884579 -0.0111289 -0.050015
0.00113037 -0.0099082 -0.0415033
0.000565186 -0.00657214 -0.0206318
-0.00101188 -0.00603743 -0.028829
-0.00189938 -0.0103206 -0.0555963
-0.00240002 -0.0118678 -0.0660677
-0.00262332 -0.0125181 -0.0696912
-0.00270379 -0.0127966 -0.0707862
-0.00272277 -0.0129116 -0.0710759
-0.00271814 -0.0129605 -0.0711738
-0.00270275 -0.0129854 -0.0712721
-0.00267606 -0.0130024 -0.0714253
-0.00262919 -0.0130149 -0.0716468
-0.00254607 -0.0130191 -0.0719352
-0.00240306 -0.0130048 -0.0722775
-0.00216957 -0.0129535 -0.0726424
-0.00181112 -0.0128359 -0.0729696
-0.00129633 -0.0126115 -0.0731451
-0.00061308 -0.0122311 -0.0729254
0.000197658 -0.0116448 -0.0716888
0.000970526 -0.0107912 -0.0677519
0.00129171 -0.0093841 -0.0568033
0.000645855 -0.00571555 -0.0292978
-0.00108931 -0.00394628 -0.0381604
-0.00203721 -0.00814296 -0.0719797
-0.00255999 -0.00972794 -0.0850788
-0.00278461 -0.0103604 -0.0896168
-0.00285964 -0.0106169 -0.0910047
-0.00287216 -0.0107188 -0.0913783
-0.00286165 -0.0107627 -0.0914924
-0.00284219 -0.0107883 -0.0915809
-0.00281485 -0.0108105 -0.0917085
-0.00277234 -0.0108339 -0.0918918
-0.00270008 -0.0108574 -0.092132
-0.00257484 -0.0108742 -0.092418
-0.00236405 -0.0108696 -0.0927222
-0.00202724 -0.0108177 -0.0929857
-0.00152124 -0.0106767 -0.093088
-0.000817881 -0.0103889 -0.092748
5.65708e-05 -0.00988245 -0.0912111
0.000929841 -0.00905172 -0.0863915
0.00133045 -0.00753431 -0.0728918
0.000665223 -0.00379361 -0.0384504
-0.00105421 -0.00061627 -0.0470077
-0.00196479 -0.00421938 -0.0873799
-0.00245365 -0.00567399 -0.10288
-0.002655 -0.00620712 -0.108228
-0.00271751 -0.0064034 -0.109863
-0.00272515 -0.00647631 -0.110301
-0.00271458 -0.00650865 -0.110425
-0.00269924 -0.00653194 -0.110505
-0.00268136 -0.00655804 -0.110612
-0.0026562 -0.00659186 -0.110766
-0.00261229 -0.00663549 -0.110969
-0.00252945 -0.00668765 -0.111216
-0.00237704 -0.00674083 -0.111485
-0.00211181 -0.00677673 -0.111725
-0.00168142 -0.00676023 -0.111814
-0.0010386 -0.00663249 -0.111437
-0.000184856 -0.00630385 -0.109706
0.000722595 -0.00561716 -0.104129
0.00119006 -0.0041289 -0.0882527
0.000595032 -0.000700733 -0.0472383
-0.000850187 0.00380862 -0.0541367
-0.00157907 0.00142159 -0.099383
-0.00195522 0.000318349 -0.116487
-0.00210094 -1.84717e-05 -0.122292
-0.00214266 -0.000114342 -0.124032
-0.00214774 -0.0001429 -0.124485
-0.00214416 -0.000157487 -0.124604
-0.00214227 -0.000174846 -0.124675
-0.0021447 -0.000201387 -0.12477
-0.00214966 -0.000241792 -0.124909
-0.00215055 -0.000301397 -0.125096
-0.00213338 -0.000384925 -0.125333
-0.00207394 -0.000494352 -0.12561
-0.00193378 -0.000624557 -0.125891
-0.00165803 -0.000755582 -0.126064
-0.00118429 -0.000841368 -0.125798
-0.000481443 -0.000788932 -0.124101
0.000338648 -0.000396826 -0.118152
0.000825368 0.000850301 -0.100619
0.000412684 0.00345818 -0.0545028
-0.00042116 0.00881081 -0.0577692
-0.000783519 0.00831274 -0.10398
-0.000952397 0.00781466 -0.120736
-0.00100638 0.00776621 -0.126168
-0.00101914 0.00780101 -0.127703
-0.00102507 0.00782616 -0.128068
-0.00103652 0.00783325 -0.128154
-0.00105793 0.00782542 -0.128213
-0.00109124 0.00780327 -0.128304
-0.00113748 0.00776315 -0.128442
-0.00119541 0.00769761 -0.128636
-0.00125965 0.00759649 -0.128895
-0.0013179 0.00744821 -0.129225
-0.00134512 0.00724227 -0.129614
-0.00129768 0.00697584 -0.129983
-0.00111209 0.00666623 -0.130029
-0.000728903 0.00638242 -0.128771
-0.000183962 0.00633571 -0.123321
0.00021763 0.00706517 -0.106005
0.000108815 0.00824716 -0.05849
0.000283078 0.0133509 -0.0539779
0.000483071 0.015303 -0.0924598
0.000603135 0.0156245 -0.104897
0.000661868 0.0159115 -0.108431
0.000674575 0.0160799 -0.109248
0.000655298 0.0161561 -0.10937
0.000613129 0.0161845 -0.109382
0.000552076 0.0161888 -0.109422
0.000472369 0.0161762 -0.109512
0.000371669 0.0161448 -0.109658
0.000246534 0.0160866 -0.109868
9.34528e-05 0.0159888 -0.11016
-8.98872e-05 0.0158329 -0.110557
-0.000299816 0.015596 -0.111079
-0.000520159 0.0152517 -0.111706
-0.000713109 0.0147784 -0.112253
-0.00081906 0.0141909 -0.111988
-0.000790501 0.0136447 -0.108592
-0.000659418 0.013584 -0.0954563
-0.000329709 0.0127317 -0.0551706
0.00124607 0.0157333 -0.0300824
0.00213552 0.0202156 -0.0417159
0.00255863 0.0213681 -0.0433068
0.00270269 0.0219309 -0.0430372
0.00270317 0.0221912 -0.0426364
0.00263111 0.0223002 -0.0423971
0.00251957 0.0223445 -0.0423081
0.00238256 0.0223611 -0.0423206
0.00222455 0.0223614 -0.042403
0.00204425 0.0223453 -0.0425463
0.00183637 0.022306 -0.0427573
0.00159111 0.0222313 -0.0430558
0.00129436 0.0221024 -0.0434756
0.000926571 0.0218919 -0.0440641
0.000465618 0.0215603 -0.0448752
-0.000106181 0.0210558 -0.0459258
-0.000784592 0.0203304 -0.0470637
-0.00148923 0.0194206 -0.0476168
-0.00187551 0.0184874 -0.0453034
-0.000937755 0.0152544 -0.0316112
0.00219459 0.0137239 0.0600208
0.00363017 0.0192429 0.111166
0.00419035 0.0206425 0.126414
0.00428081 0.0212189 0.130896
0.00415924 0.0214667 0.132314
0.00394656 0.0215698 0.132789
0.00369558 0.0216151 0.132933
0.00342902 0.0216371 0.132943
0.00315556 0.0216465 0.132882
0.00287596 0.0216438 0.132769
0.00258541 0.0216253 0.1326
0.0022727 0.0215826 0.132361
0.00191781 0.0215023 0.132024
0.00148719 0.0213631 0.131537
0.000927513 0.0211319 0.130808
0.000158322 0.0207579 0.129648
-0.000918477 0.0201747 0.127564
-0.0022991 0.0193365 0.12276
-0.00332131 0.0180894 0.108012
-0.00166066 0.0134419 0.0585285
0.00187729 0.00686197 0.38853
0.00300761 0.00962147 0.528091
0.00326963 0.0103213 0.55248
0.00312077 0.0106094 0.557219
0.00283165 0.0107333 0.558336
0.00251372 0.0107849 0.558646
0.00220783 0.0108076 0.558731
0.00192723 0.0108185 0.558735
0.00167351 0.0108232 0.558699
0.00144391 0.0108219 0.558634
0.00123199 0.0108127 0.558541
0.00102736 0.0107913 0.558413
0.000813797 0.0107511 0.55824
0.000563296 0.0106816 0.557996
0.00022719 0.010566 0.557622
-0.000280284 0.010379 0.556967
-0.00108655 0.0100874 0.555498
-0.0022417 0.00966826 0.550561
-0.0030906 0.00904468 0.526356
-0.0015453 0.00672095 0.387431
4.85466e-05 9.36888e-06 0.0037215
9.2947e-05 3.04301e-05 0.00547909
0.000105773 3.75421e-05 0.00594945
9.68725e-05 3.82135e-05 0.00609784
7.43121e-05 3.7202e-05 0.00615268
4.27215e-05 3.55194e-05 0.00616269
5.1875e-06 3.3033e-05 0.00613849
-3.56036e-05 2.96144e-05 0.006084
-7.69696e-05 2.52745e-05 0.006002
-0.000116115 2.01761e-05 0.00589543
-0.000150119 1.47882e-05 0.00576826
-0.00017632 9.75304e-06 0.00562658
-0.00019277 5.73015e-06 0.00547908
-0.000198861 3.57078e-06 0.00533678
-0.000195961 3.92052e-06 0.00521274
-0.000187708 7.23549e-06 0.00512004
-0.000178965 1.29325e-05 0.00506457
-0.000172894 1.96079e-05 0.00501131
-0.000162019 2.55471e-05 0.00474099
-8.10095e-05 3.39096e-05 0.00332076
7.72422e-05 -6.70067e-05 0.00572102
0.000134701 -6.16466e-05 0.00892177
0.000151978 -5.94993e-05 0.00979059
0.000142764 -6.2901e-05 0.0100427
0.000115793 -6.64826e-05 0.0101262
7.55552e-05 -7.00726e-05 0.0101359
2.52067e-05 -7.49238e-05 0.0100881
-3.21877e-05 -8.1876e-05 0.00998733
-9.32223e-05 -9.10492e-05 0.0098378
-0.000153883 -0.000101875 0.00964461
-0.000209758 -0.000113334 0.00941495
-0.000256605 -0.000124047 0.00915938
-0.000290661 -0.00013213 0.00889288
-0.000309862 -0.000135574 0.00863539
-0.000314571 -0.000132359 0.00841085
-0.000308978 -0.000121584 0.00824507
-0.00029977 -0.000103917 0.00815292
-0.000292296 -8.29726e-05 0.00807064
-0.000271916 -6.33566e-05 0.00758352
-0.000135958 -3.56989e-05 0.00505367
8.04493e-05 -0.000316377 0.00650967
0.000134471 -0.000378034 0.00997577
0.000146955 -0.000397646 0.0108701
0.000133528 -0.000412418 0.0111215
0.000102396 -0.000421233 0.011209
5.71351e-05 -0.000427261 0.011221
3.40307e-07 -0.000434186 0.0111662
-6.49373e-05 -0.000443902 0.011046
-0.000134805 -0.000456849 0.0108638
-0.000204614 -0.000472305 0.0106251
-0.000269153 -0.000488609 0.0103381
-0.000322878 -0.000503409 0.0100151
-0.000360825 -0.000513561 0.00967441
-0.000379515 -0.000515394 0.00934127
-0.000378867 -0.000505381 0.0090476
-0.000363153 -0.000481477 0.00883121
-0.000341389 -0.000444596 0.00872526
-0.000322487 -0.000400528 0.00868549
-0.000294144 -0.000357004 0.00828328
-0.000147072 -0.000276871 0.00568456
6.50189e-05 -0.000786216 0.00682521
0.00010214 -0.000984812 0.00997166
0.000103226 -0.00104686 0.0106786
8.32678e-05 -0.00108204 0.0108695
4.77399e-05 -0.00109989 0.0109495
-1.80847e-06 -0.00110949 0.0109661
-6.35545e-05 -0.00111817 0.0109108
-0.000134606 -0.00112981 0.0107797
-0.000210753 -0.00114526 0.010575
-0.000286574 -0.00116365 0.0103018
-0.000355841 -0.00118285 0.00996833
-0.000411689 -0.00119939 0.00958798
-0.000447507 -0.00120857 0.00918151
-0.000458346 -0.00120475 0.00877902
-0.000443204 -0.00118259 0.00842047
-0.000406817 -0.00113846 0.00815733
-0.000360811 -0.00107331 0.00804902
-0.000320198 -0.000995482 0.00810371
-0.000281287 -0.000913811 0.00798013
-0.000140643 -0.000727089 0.00586104
3.09109e-05 -0.00151096 0.00665095
3.65334e-05 -0.00193786 0.00898793
1.8982e-05 -0.00206833 0.00932943
-1.00231e-05 -0.00213524 0.00940648
-4.99759e-05 -0.00216705 0.00946658
-0.000102542 -0.00218198 0.00948674
-0.000167562 -0.00219261 0.0094336
-0.00024228 -0.0022052 0.00929552
-0.000322215 -0.00222167 0.00907265
-0.000401327 -0.00224116 0.00876933
-0.000472162 -0.00226092 0.0083935
-0.000526217 -0.0022763 0.00795919
-0.000554885 -0.00228075 0.00748958
-0.000551489 -0.00226648 0.00701959
-0.000513609 -0.00222561 0.00659796
-0.000446385 -0.00215273 0.00629237
-0.000364925 -0.00204852 0.00619613
-0.000292461 -0.00192387 0.00639758
-0.000239689 -0.00178458 0.00672456
-0.000119844 -0.00141708 0.00556061
-2.47652e-05 -0.00250562 0.00576126
-6.78425e-05 -0.00327282 0.00669002
-0.000112886 -0.0035039 0.00645281
-0.00015405 -0.00361607 0.0063474
-0.000198586 -0.00366801 0.00636747
-0.000252871 -0.00369056 0.00638686
-0.000318797 -0.00370349 0.00633688
-0.000394462 -0.00371645 0.00619528
-0.000475173 -0.00373258 0.00595924
-0.000554181 -0.00375126 0.00563183
-0.00062273 -0.00376904 0.0052203
-0.000670327 -0.00378003 0.00473904
-0.000686168 -0.00377571 0.00421357
-0.000661075 -0.00374561 0.00368344
-0.000591096 -0.00367899 0.00320672
-0.00048147 -0.00356779 0.00286963
-0.000351588 -0.00341233 0.00280869
-0.00023516 -0.00322513 0.00322231
-0.000164752 -0.00300332 0.00420117
-8.23758e-05 -0.00236199 0.00456867
-0.00010591 -0.00375326 0.00386865
-0.000218109 -0.00498732 0.00262772
-0.000301079 -0.00535615 0.00154475
-0.000358286 -0.00552871 0.00116725
-0.000407543 -0.00560736 0.00111829
-0.000461875 -0.00564038 0.00112885
-0.000526159 -0.00565633 0.00108215
-0.000599499 -0.00566922 0.000941377
-0.000677304 -0.00568381 0.000699331
-0.000752014 -0.00569975 0.000357297
-0.000813498 -0.00571313 -7.87392e-05
-0.000849193 -0.00571664 -0.000594357
-0.000845511 -0.00569966 -0.00116243
-0.000790444 -0.00564879 -0.00173864
-0.000677576 -0.00554955 -0.00225519
-0.000512382 -0.00539073 -0.00260418
-0.000318679 -0.00517102 -0.00259538
-0.00014409 -0.00490411 -0.00188413
-5.12731e-05 -0.00456977 -5.5669e-06
-2.56366e-05 -0.00354641 0.00261532
-0.000214976 -0.00518904 0.000682403
-0.000418511 -0.00701885 -0.00365488
-0.00055072 -0.00756492 -0.00591056
-0.000627878 -0.00781285 -0.00667389
-0.000682151 -0.00792483 -0.00683092
-0.000734724 -0.00797095 -0.00684165
-0.000794486 -0.00799093 -0.00688688
-0.000861948 -0.00800367 -0.00702291
-0.000932752 -0.00801594 -0.00726277
-0.000998731 -0.00802789 -0.0076077
-0.00104828 -0.00803514 -0.00805336
-0.00106658 -0.00802922 -0.008586
-0.00103695 -0.00799718 -0.00917733
-0.000943579 -0.00792231 -0.00977845
-0.000777043 -0.00778573 -0.0103112
-0.000541971 -0.00757171 -0.0106431
-0.000267634 -0.00727627 -0.0105176
-1.8608e-05 -0.00691184 -0.00940143
0.000102956 -0.00643018 -0.00632283
5.14781e-05 -0.00491072 -0.000575313
-0.000351778 -0.00668488 -0.00405227
-0.000668931 -0.00922394 -0.0125496
-0.000861357 -0.00998421 -0.0163579
-0.000962351 -0.01032 -0.0176428
-0.00102159 -0.0104702 -0.0179561
-0.00107071 -0.0105315 -0.0180046
-0.00112313 -0.0105564 -0.0180517
-0.00118125 -0.0105692 -0.0181795
-0.00124118 -0.010579 -0.0184086
-0.00129428 -0.0105865 -0.0187431
-0.00132764 -0.0105873 -0.0191805
-0.00132397 -0.0105717 -0.0197084
-0.00126312 -0.010525 -0.0202977
-0.00112471 -0.0104264 -0.0208954
-0.000894896 -0.010252 -0.0214126