# vtk DataFile Version 2.0 
Visualization 
ASCII 
DATASET STRUCTURED_GRID 
DIMENSIONS 21 21 11
POINTS 4851 float
-0.1 -0.1 -0.1
0 -0.1 -0.1
0.1 -0.1 -0.1
0.2 -0.1 -0.1
0.3 -0.1 -0.1
0.4 -0.1 -0.1
0.5 -0.1 -0.1
0.6 -0.1 -0.1
0.7 -0.1 -0.1
0.8 -0.1 -0.1
0.9 -0.1 -0.1
1 -0.1 -0.1
1.1 -0.1 -0.1
1.2 -0.1 -0.1
1.3 -0.1 -0.1
1.4 -0.1 -0.1
1.5 -0.1 -0.1
1.6 -0.1 -0.1
1.7 -0.1 -0.1
1.8 -0.1 -0.1
1.9 -0.1 -0.1
-0.1 0 -0.1
0 0 -0.1
0.1 0 -0.1
0.2 0 -0.1
0.3 0 -0.1
0.4 0 -0.1
0.5 0 -0.1
0.6 0 -0.1
0.7 0 -0.1
0.8 0 -0.1
0.9 0 -0.1
1 0 -0.1
1.1 0 -0.1
1.2 0 -0.1
1.3 0 -0.1
1.4 0 -0.1
1.5 0 -0.1
1.6 0 -0.1
1.7 0 -0.1
1.8 0 -0.1
1.9 0 -0.1
-0.1 0.1 -0.1
0 0.1 -0.1
0.1 0.1 -0.1
0.2 0.1 -0.1
0.3 0.1 -0.1
0.4 0.1 -0.1
0.5 0.1 -0.1
0.6 0.1 -0.1
0.7 0.1 -0.1
0.8 0.1 -0.1
0.9 0.1 -0.1
1 0.1 -0.1
1.1 0.1 -0.1
1.2 0.1 -0.1
1.3 0.1 -0.1
1.4 0.1 -0.1
1.5 0.1 -0.1
1.6 0.1 -0.1
1.7 0.1 -0.1
1.8 0.1 -0.1
1.9 0.1 -0.1
-0.1 0.2 -0.1
0 0.2 -0.1
0.1 0.2 -0.1
0.2 0.2 -0.1
0.3 0.2 -0.1
0.4 0.2 -0.1
0.5 0.2 -0.1
0.6 0.2 -0.1
0.7 0.2 -0.1
0.8 0.2 -0.1
0.9 0.2 -0.1
1 0.2 -0.1
1.1 0.2 -0.1
1.2 0.2 -0.1
1.3 0.2 -0.1
1.4 0.2 -0.1
1.5 0.2 -0.1
1.6 0.2 -0.1
1.7 0.2 -0.1
1.8 0.2 -0.1
1.9 0.2 -0.1
-0.1 0.3 -0.1
0 0.3 -0.1
0.1 0.3 -0.1
0.2 0.3 -0.1
0.3 0.3 -0.1
0.4 0.3 -0.1
0.5 0.3 -0.1
0.6 0.3 -0.1
0.7 0.3 -0.1
0.8 0.3 -0.1
0.9 0.3 -0.1
1 0.3 -0.1
1.1 0.3 -0.1
1.2 0.3 -0.1
1.3 0.3 -0.1
1.4 0.3 -0.1
1.5 0.3 -0.1
1.6 0.3 -0.1
1.7 0.3 -0.1
1.8 0.3 -0.1
1.9 0.3 -0.1
-0.1 0.4 -0.1
0 0.4 -0.1
0.1 0.4 -0.1
0.2 0.4 -0.1
0.3 0.4 -0.1
0.4 0.4 -0.1
0.5 0.4 -0.1
0.6 0.4 -0.1
0.7 0.4 -0.1
0.8 0.4 -0.1
0.9 0.4 -0.1
1 0.4 -0.1
1.1 0.4 -0.1
1.2 0.4 -0.1
1.3 0.4 -0.1
1.4 0.4 -0.1
1.5 0.4 -0.1
1.6 0.4 -0.1
1.7 0.4 -0.1
1.8 0.4 -0.1
1.9 0.4 -0.1
-0.1 0.5 -0.1
0 0.5 -0.1
0.1 0.5 -0.1
0.2 0.5 -0.1
0.3 0.5 -0.1
0.4 0.5 -0.1
0.5 0.5 -0.1
0.6 0.5 -0.1
0.7 0.5 -0.1
0.8 0.5 -0.1
0.9 0.5 -0.1
1 0.5 -0.1
1.1 0.5 -0.1
1.2 0.5 -0.1
1.3 0.5 -0.1
1.4 0.5 -0.1
1.5 0.5 -0.1
1.6 0.5 -0.1
1.7 0.5 -0.1
1.8 0.5 -0.1
1.9 0.5 -0.1
-0.1 0.6 -0.1
0 0.6 -0.1
0.1 0.6 -0.1
0.2 0.6 -0.1
0.3 0.6 -0.1
0.4 0.6 -0.1
0.5 0.6 -0.1
0.6 0.6 -0.1
0.7 0.6 -0.1
0.8 0.6 -0.1
0.9 0.6 -0.1
1 0.6 -0.1
1.1 0.6 -0.1
1.2 0.6 -0.1
1.3 0.6 -0.1
1.4 0.6 -0.1
1.5 0.6 -0.1
1.6 0.6 -0.1
1.7 0.6 -0.1
1.8 0.6 -0.1
1.9 0.6 -0.1
-0.1 0.7 -0.1
0 0.7 -0.1
0.1 0.7 -0.1
0.2 0.7 -0.1
0.3 0.7 -0.1
0.4 0.7 -0.1
0.5 0.7 -0.1
0.6 0.7 -0.1
0.7 0.7 -0.1
0.8 0.7 -0.1
0.9 0.7 -0.1
1 0.7 -0.1
1.1 0.7 -0.1
1.2 0.7 -0.1
1.3 0.7 -0.1
1.4 0.7 -0.1
1.5 0.7 -0.1
1.6 0.7 -0.1
1.7 0.7 -0.1
1.8 0.7 -0.1
1.9 0.7 -0.1
-0.1 0.8 -0.1
0 0.8 -0.1
0.1 0.8 -0.1
0.2 0.8 -0.1
0.3 0.8 -0.1
0.4 0.8 -0.1
0.5 0.8 -0.1
0.6 0.8 -0.1
0.7 0.8 -0.1
0.8 0.8 -0.1
0.9 0.8 -0.1
1 0.8 -0.1
1.1 0.8 -0.1
1.2 0.8 -0.1
1.3 0.8 -0.1
1.4 0.8 -0.1
1.5 0.8 -0.1
1.6 0.8 -0.1
1.7 0.8 -0.1
1.8 0.8 -0.1
1.9 0.8 -0.1
-0.1 0.9 -0.1
0 0.9 -0.1
0.1 0.9 -0.1
0.2 0.9 -0.1
0.3 0.9 -0.1
0.4 0.9 -0.1
0.5 0.9 -0.1
0.6 0.9 -0.1
0.7 0.9 -0.1
0.8 0.9 -0.1
0.9 0.9 -0.1
1 0.9 -0.1
1.1 0.9 -0.1
1.2 0.9 -0.1
1.3 0.9 -0.1
1.4 0.9 -0.1
1.5 0.9 -0.1
1.6 0.9 -0.1
1.7 0.9 -0.1
1.8 0.9 -0.1
1.9 0.9 -0.1
-0.1 1 -0.1
0 1 -0.1
0.1 1 -0.1
0.2 1 -0.1
0.3 1 -0.1
0.4 1 -0.1
0.5 1 -0.1
0.6 1 -0.1
0.7 1 -0.1
0.8 1 -0.1
0.9 1 -0.1
1 1 -0.1
1.1 1 -0.1
1.2 1 -0.1
1.3 1 -0.1
1.4 1 -0.1
1.5 1 -0.1
1.6 1 -0.1
1.7 1 -0.1
1.8 1 -0.1
1.9 1 -0.1
-0.1 1.1 -0.1
0 1.1 -0.1
0.1 1.1 -0.1
0.2 1.1 -0.1
0.3 1.1 -0.1
0.4 1.1 -0.1
0.5 1.1 -0.1
0.6 1.1 -0.1
0.7 1.1 -0.1
0.8 1.1 -0.1
0.9 1.1 -0.1
1 1.1 -0.1
1.1 1.1 -0.1
1.2 1.1 -0.1
1.3 1.1 -0.1
1.4 1.1 -0.1
1.5 1.1 -0.1
1.6 1.1 -0.1
1.7 1.1 -0.1
1.8 1.1 -0.1
1.9 1.1 -0.1
-0.1 1.2 -0.1
0 1.2 -0.1
0.1 1.2 -0.1
0.2 1.2 -0.1
0.3 1.2 -0.1
0.4 1.2 -0.1
0.5 1.2 -0.1
0.6 1.2 -0.1
0.7 1.2 -0.1
0.8 1.2 -0.1
0.9 1.2 -0.1
1 1.2 -0.1
1.1 1.2 -0.1
1.2 1.2 -0.1
1.3 1.2 -0.1
1.4 1.2 -0.1
1.5 1.2 -0.1
1.6 1.2 -0.1
1.7 1.2 -0.1
1.8 1.2 -0.1
1.9 1.2 -0.1
-0.1 1.3 -0.1
0 1.3 -0.1
0.1 1.3 -0.1
0.2 1.3 -0.1
0.3 1.3 -0.1
0.4 1.3 -0.1
0.5 1.3 -0.1
0.6 1.3 -0.1
0.7 1.3 -0.1
0.8 1.3 -0.1
0.9 1.3 -0.1
1 1.3 -0.1
1.1 1.3 -0.1
1.2 1.3 -0.1
1.3 1.3 -0.1
1.4 1.3 -0.1
1.5 1.3 -0.1
1.6 1.3 -0.1
1.7 1.3 -0.1
1.8 1.3 -0.1
1.9 1.3 -0.1
-0.1 1.4 -0.1
0 1.4 -0.1
0.1 1.4 -0.1
0.2 1.4 -0.1
0.3 1.4 -0.1
0.4 1.4 -0.1
0.5 1.4 -0.1
0.6 1.4 -0.1
0.7 1.4 -0.1
0.8 1.4 -0.1
0.9 1.4 -0.1
1 1.4 -0.1
1.1 1.4 -0.1
1.2 1.4 -0.1
1.3 1.4 -0.1
1.4 1.4 -0.1
1.5 1.4 -0.1
1.6 1.4 -0.1
1.7 1.4 -0.1
1.8 1.4 -0.1
1.9 1.4 -0.1
-0.1 1.5 -0.1
0 1.5 -0.1
0.1 1.5 -0.1
0.2 1.5 -0.1
0.3 1.5 -0.1
0.4 1.5 -0.1
0.5 1.5 -0.1
0.6 1.5 -0.1
0.7 1.5 -0.1
0.8 1.5 -0.1
0.9 1.5 -0.1
1 1.5 -0.1
1.1 1.5 -0.1
1.2 1.5 -0.1
1.3 1.5 -0.1
1.4 1.5 -0.1
1.5 1.5 -0.1
1.6 1.5 -0.1
1.7 1.5 -0.1
1.8 1.5 -0.1
1.9 1.5 -0.1
-0.1 1.6 -0.1
0 1.6 -0.1
0.1 1.6 -0.1
0.2 1.6 -0.1
0.3 1.6 -0.1
0.4 1.6 -0.1
0.5 1.6 -0.1
0.6 1.6 -0.1
0.7 1.6 -0.1
0.8 1.6 -0.1
0.9 1.6 -0.1
1 1.6 -0.1
1.1 1.6 -0.1
1.2 1.6 -0.1
1.3 1.6 -0.1
1.4 1.6 -0.1
1.5 1.6 -0.1
1.6 1.6 -0.1
1.7 1.6 -0.1
1.8 1.6 -0.1
1.9 1.6 -0.1
-0.1 1.7 -0.1
0 1.7 -0.1
0.1 1.7 -0.1
0.2 1.7 -0.1
0.3 1.7 -0.1
0.4 1.7 -0.1
0.5 1.7 -0.1
0.6 1.7 -0.1
0.7 1.7 -0.1
0.8 1.7 -0.1
0.9 1.7 -0.1
1 1.7 -0.1
1.1 1.7 -0.1
1.2 1.7 -0.1
1.3 1.7 -0.1
1.4 1.7 -0.1
1.5 1.7 -0.1
1.6 1.7 -0.1
1.7 1.7 -0.1
1.8 1.7 -0.1
1.9 1.7 -0.1
-0.1 1.8 -0.1
0 1.8 -0.1
0.1 1.8 -0.1
0.2 1.8 -0.1
0.3 1.8 -0.1
0.4 1.8 -0.1
0.5 1.8 -0.1
0.6 1.8 -0.1
0.7 1.8 -0.1
0.8 1.8 -0.1
0.9 1.8 -0.1
1 1.8 -0.1
1.1 1.8 -0.1
1.2 1.8 -0.1
1.3 1.8 -0.1
1.4 1.8 -0.1
1.5 1.8 -0.1
1.6 1.8 -0.1
1.7 1.8 -0.1
1.8 1.8 -0.1
1.9 1.8 -0.1
-0.1 1.9 -0.1
0 1.9 -0.1
0.1 1.9 -0.1
0.2 1.9 -0.1
0.3 1.9 -0.1
0.4 1.9 -0.1
0.5 1.9 -0.1
0.6 1.9 -0.1
0.7 1.9 -0.1
0.8 1.9 -0.1
0.9 1.9 -0.1
1 1.9 -0.1
1.1 1.9 -0.1
1.2 1.9 -0.1
1.3 1.9 -0.1
1.4 1.9 -0.1
1.5 1.9 -0.1
1.6 1.9 -0.1
1.7 1.9 -0.1
1.8 1.9 -0.1
1.9 1.9 -0.1
-0.1 -0.1 0
0 -0.1 0
0.1 -0.1 0
0.2 -0.1 0
0.3 -0.1 0
0.4 -0.1 0
0.5 -0.1 0
0.6 -0.1 0
0.7 -0.1 0
0.8 -0.1 0
0.9 -0.1 0
1 -0.1 0
1.1 -0.1 0
1.2 -0.1 0
1.3 -0.1 0
1.4 -0.1 0
1.5 -0.1 0
1.6 -0.1 0
1.7 -0.1 0
1.8 -0.1 0
1.9 -0.1 0
-0.1 0 0
0 0 0
0.1 0 0
0.2 0 0
0.3 0 0
0.4 0 0
0.5 0 0
0.6 0 0
0.7 0 0
0.8 0 0
0.9 0 0
1 0 0
1.1 0 0
1.2 0 0
1.3 0 0
1.4 0 0
1.5 0 0
1.6 0 0
1.7 0 0
1.8 0 0
1.9 0 0
-0.1 0.1 0
0 0.1 0
0.1 0.1 0
0.2 0.1 0
0.3 0.1 0
0.4 0.1 0
0.5 0.1 0
0.6 0.1 0
0.7 0.1 0
0.8 0.1 0
0.9 0.1 0
1 0.1 0
1.1 0.1 0
1.2 0.1 0
1.3 0.1 0
1.4 0.1 0
1.5 0.1 0
1.6 0.1 0
1.7 0.1 0
1.8 0.1 0
1.9 0.1 0
-0.1 0.2 0
0 0.2 0
0.1 0.2 0
0.2 0.2 0
0.3 0.2 0
0.4 0.2 0
0.5 0.2 0
0.6 0.2 0
0.7 0.2 0
0.8 0.2 0
0.9 0.2 0
1 0.2 0
1.1 0.2 0
1.2 0.2 0
1.3 0.2 0
1.4 0.2 0
1.5 0.2 0
1.6 0.2 0
1.7 0.2 0
1.8 0.2 0
1.9 0.2 0
-0.1 0.3 0
0 0.3 0
0.1 0.3 0
0.2 0.3 0
0.3 0.3 0
0.4 0.3 0
0.5 0.3 0
0.6 0.3 0
0.7 0.3 0
0.8 0.3 0
0.9 0.3 0
1 0.3 0
1.1 0.3 0
1.2 0.3 0
1.3 0.3 0
1.4 0.3 0
1.5 0.3 0
1.6 0.3 0
1.7 0.3 0
1.8 0.3 0
1.9 0.3 0
-0.1 0.4 0
0 0.4 0
0.1 0.4 0
0.2 0.4 0
0.3 0.4 0
0.4 0.4 0
0.5 0.4 0
0.6 0.4 0
0.7 0.4 0
0.8 0.4 0
0.9 0.4 0
1 0.4 0
1.1 0.4 0
1.2 0.4 0
1.3 0.4 0
1.4 0.4 0
1.5 0.4 0
1.6 0.4 0
1.7 0.4 0
1.8 0.4 0
1.9 0.4 0
-0.1 0.5 0
0 0.5 0
0.1 0.5 0
0.2 0.5 0
0.3 0.5 0
0.4 0.5 0
0.5 0.5 0
0.6 0.5 0
0.7 0.5 0
0.8 0.5 0
0.9 0.5 0
1 0.5 0
1.1 0.5 0
1.2 0.5 0
1.3 0.5 0
1.4 0.5 0
1.5 0.5 0
1.6 0.5 0
1.7 0.5 0
1.8 0.5 0
1.9 0.5 0
-0.1 0.6 0
0 0.6 0
0.1 0.6 0
0.2 0.6 0
0.3 0.6 0
0.4 0.6 0
0.5 0.6 0
0.6 0.6 0
0.7 0.6 0
0.8 0.6 0
0.9 0.6 0
1 0.6 0
1.1 0.6 0
1.2 0.6 0
1.3 0.6 0
1.4 0.6 0
1.5 0.6 0
1.6 0.6 0
1.7 0.6 0
1.8 0.6 0
1.9 0.6 0
-0.1 0.7 0
0 0.7 0
0.1 0.7 0
0.2 0.7 0
0.3 0.7 0
0.4 0.7 0
0.5 0.7 0
0.6 0.7 0
0.7 0.7 0
0.8 0.7 0
0.9 0.7 0
1 0.7 0
1.1 0.7 0
1.2 0.7 0
1.3 0.7 0
1.4 0.7 0
1.5 0.7 0
1.6 0.7 0
1.7 0.7 0
1.8 0.7 0
1.9 0.7 0
-0.1 0.8 0
0 0.8 0
0.1 0.8 0
0.2 0.8 0
0.3 0.8 0
0.4 0.8 0
0.5 0.8 0
0.6 0.8 0
0.7 0.8 0
0.8 0.8 0
0.9 0.8 0
1 0.8 0
1.1 0.8 0
1.2 0.8 0
1.3 0.8 0
1.4 0.8 0
1.5 0.8 0
1.6 0.8 0
1.7 0.8 0
1.8 0.8 0
1.9 0.8 0
-0.1 0.9 0
0 0.9 0
0.1 0.9 0
0.2 0.9 0
0.3 0.9 0
0.4 0.9 0
0.5 0.9 0
0.6 0.9 0
0.7 0.9 0
0.8 0.9 0
0.9 0.9 0
1 0.9 0
1.1 0.9 0
1.2 0.9 0
1.3 0.9 0
1.4 0.9 0
1.5 0.9 0
1.6 0.9 0
1.7 0.9 0
1.8 0.9 0
1.9 0.9 0
-0.1 1 0
0 1 0
0.1 1 0
0.2 1 0
0.3 1 0
0.4 1 0
0.5 1 0
0.6 1 0
0.7 1 0
0.8 1 0
0.9 1 0
1 1 0
1.1 1 0
1.2 1 0
1.3 1 0
1.4 1 0
1.5 1 0
1.6 1 0
1.7 1 0
1.8 1 0
1.9 1 0
-0.1 1.1 0
0 1.1 0
0.1 1.1 0
0.2 1.1 0
0.3 1.1 0
0.4 1.1 0
0.5 1.1 0
0.6 1.1 0
0.7 1.1 0
0.8 1.1 0
0.9 1.1 0
1 1.1 0
1.1 1.1 0
1.2 1.1 0
1.3 1.1 0
1.4 1.1 0
1.5 1.1 0
1.6 1.1 0
1.7 1.1 0
1.8 1.1 0
1.9 1.1 0
-0.1 1.2 0
0 1.2 0
0.1 1.2 0
0.2 1.2 0
0.3 1.2 0
0.4 1.2 0
0.5 1.2 0
0.6 1.2 0
0.7 1.2 0
0.8 1.2 0
0.9 1.2 0
1 1.2 0
1.1 1.2 0
1.2 1.2 0
1.3 1.2 0
1.4 1.2 0
1.5 1.2 0
1.6 1.2 0
1.7 1.2 0
1.8 1.2 0
1.9 1.2 0
-0.1 1.3 0
0 1.3 0
0.1 1.3 0
0.2 1.3 0
0.3 1.3 0
0.4 1.3 0
0.5 1.3 0
0.6 1.3 0
0.7 1.3 0
0.8 1.3 0
0.9 1.3 0
1 1.3 0
1.1 1.3 0
1.2 1.3 0
1.3 1.3 0
1.4 1.3 0
1.5 1.3 0
1.6 1.3 0
1.7 1.3 0
1.8 1.3 0
1.9 1.3 0
-0.1 1.4 0
0 1.4 0
0.1 1.4 0
0.2 1.4 0
0.3 1.4 0
0.4 1.4 0
0.5 1.4 0
0.6 1.4 0
0.7 1.4 0
0.8 1.4 0
0.9 1.4 0
1 1.4 0
1.1 1.4 0
1.2 1.4 0
1.3 1.4 0
1.4 1.4 0
1.5 1.4 0
1.6 1.4 0
1.7 1.4 0
1.8 1.4 0
1.9 1.4 0
-0.1 1.5 0
0 1.5 0
0.1 1.5 0
0.2 1.5 0
0.3 1.5 0
0.4 1.5 0
0.5 1.5 0
0.6 1.5 0
0.7 1.5 0
0.8 1.5 0
0.9 1.5 0
1 1.5 0
1.1 1.5 0
1.2 1.5 0
1.3 1.5 0
1.4 1.5 0
1.5 1.5 0
1.6 1.5 0
1.7 1.5 0
1.8 1.5 0
1.9 1.5 0
-0.1 1.6 0
0 1.6 0
0.1 1.6 0
0.2 1.6 0
0.3 1.6 0
0.4 1.6 0
0.5 1.6 0
0.6 1.6 0
0.7 1.6 0
0.8 1.6 0
0.9 1.6 0
1 1.6 0
1.1 1.6 0
1.2 1.6 0
1.3 1.6 0
1.4 1.6 0
1.5 1.6 0
1.6 1.6 0
1.7 1.6 0
1.8 1.6 0
1.9 1.6 0
-0.1 1.7 0
0 1.7 0
0.1 1.7 0
0.2 1.7 0
0.3 1.7 0
0.4 1.7 0
0.5 1.7 0
0.6 1.7 0
0.7 1.7 0
0.8 1.7 0
0.9 1.7 0
1 1.7 0
1.1 1.7 0
1.2 1.7 0
1.3 1.7 0
1.4 1.7 0
1.5 1.7 0
1.6 1.7 0
1.7 1.7 0
1.8 1.7 0
1.9 1.7 0
-0.1 1.8 0
0 1.8 0
0.1 1.8 0
0.2 1.8 0
0.3 1.8 0
0.4 1.8 0
0.5 1.8 0
0.6 1.8 0
0.7 1.8 0
0.8 1.8 0
0.9 1.8 0
1 1.8 0
1.1 1.8 0
1.2 1.8 0
1.3 1.8 0
1.4 1.8 0
1.5 1.8 0
1.6 1.8 0
1.7 1.8 0
1.8 1.8 0
1.9 1.8 0
-0.1 1.9 0
0 1.9 0
0.1 1.9 0
0.2 1.9 0
0.3 1.9 0
0.4 1.9 0
0.5 1.9 0
0.6 1.9 0
0.7 1.9 0
0.8 1.9 0
0.9 1.9 0
1 1.9 0
1.1 1.9 0
1.2 1.9 0
1.3 1.9 0
1.4 1.9 0
1.5 1.9 0
1.6 1.9 0
1.7 1.9 0
1.8 1.9 0
[...]
CELL_DATA 4000
VECTORS velocity double 
-2.4512e-05 0.00030121 -0.000276698
-2.68588e-05 0.000357152 -0.000317756
-2.50564e-05 0.000364637 -0.000327281
-1.87822e-05 0.000366663 -0.000332363
-8.45125e-06 0.000367504 -0.000335105
4.74529e-06 0.000368056 -0.000336521
1.94935e-05 0.000368588 -0.00033717
3.45648e-05 0.00036917 -0.000337317
4.88677e-05 0.00036982 -0.000337049
6.13613e-05 0.000370488 -0.000336317
7.10368e-05 0.000371148 -0.000335033
7.68995e-05 0.00037171 -0.000333093
7.79131e-05 0.000372035 -0.00033045
7.32772e-05 0.000371978 -0.000327081
6.24871e-05 0.000371287 -0.000323089
4.55733e-05 0.000369767 -0.000318622
2.32977e-05 0.000367212 -0.000313781
-2.89672e-06 0.000363312 -0.000308621
-3.10526e-05 0.000356191 -0.000301573
-1.55263e-05 0.000310098 -0.000260924
-1.18063e-05 0.000857812 -0.000344897
-1.36643e-05 0.0010198 -0.000407424
-1.42031e-05 0.00104094 -0.000421519
-1.00754e-05 0.00104647 -0.000428497
-7.70648e-07 0.00104849 -0.000432138
1.26846e-05 0.00104953 -0.000433946
2.88577e-05 0.00105045 -0.000434718
4.63084e-05 0.00105151 -0.000434815
6.36259e-05 0.00105276 -0.000434368
7.94669e-05 0.00105417 -0.0004333
9.24334e-05 0.0010556 -0.000431521
0.000101083 0.00105682 -0.000428882
0.000103918 0.00105747 -0.000425335
9.95918e-05 0.00105713 -0.000420895
8.71915e-05 0.00105528 -0.000415585
6.63868e-05 0.0010513 -0.000409597
3.76704e-05 0.00104459 -0.000403144
2.61111e-06 0.0010342 -0.000396308
-3.4594e-05 0.00101286 -0.000386749
-1.7297e-05 0.000863937 -0.000329989
3.73735e-06 0.00157952 -0.0004068
7.93105e-06 0.0019032 -0.000481496
8.08022e-06 0.00194512 -0.000498435
1.10616e-05 0.00195565 -0.000506936
1.88745e-05 0.00195927 -0.000511414
3.10482e-05 0.00196085 -0.000513635
4.62807e-05 0.00196203 -0.000514597
6.31227e-05 0.00196339 -0.000514736
8.01065e-05 0.00196506 -0.000514198
9.57533e-05 0.00196701 -0.000512909
0.000108491 0.00196898 -0.000510769
0.000116607 0.0019706 -0.000507627
0.000118346 0.00197127 -0.000503377
0.000112062 0.00197024 -0.000498029
9.64645e-05 0.00196662 -0.000491636
7.093e-05 0.00195943 -0.000484369
3.56739e-05 0.00194757 -0.000476541
-7.82519e-06 0.00192904 -0.000468369
-5.29771e-05 0.00188707 -0.000457357
-2.64885e-05 0.00158081 -0.000391236
2.11424e-05 0.00244364 -0.000484685
3.38674e-05 0.00298756 -0.000572301
3.58789e-05 0.0030587 -0.000591841
3.80335e-05 0.00307592 -0.000601904
4.43055e-05 0.00308168 -0.000607327
5.49641e-05 0.00308397 -0.000610084
6.89616e-05 0.00308541 -0.000611316
8.48565e-05 0.00308696 -0.000611567
0.000101112 0.00308888 -0.000611009
0.000116083 0.00309112 -0.000609566
0.000127987 0.00309337 -0.000607113
0.000134866 0.00309504 -0.000603478
0.00013459 0.00309535 -0.000598518
0.000125188 0.00309321 -0.000592154
0.000105031 0.00308733 -0.000584537
7.31243e-05 0.0030762 -0.000575888
2.93778e-05 0.00305827 -0.000566634
-2.42703e-05 0.00303024 -0.000557106
-7.73195e-05 0.00296024 -0.000544759
-3.86597e-05 0.00243955 -0.000467726
4.05036e-05 0.00345031 -0.000575443
6.37528e-05 0.00427652 -0.00067726
6.84961e-05 0.00438687 -0.000699214
6.99131e-05 0.00441277 -0.00071084
7.43823e-05 0.00442132 -0.000717257
8.31518e-05 0.00442457 -0.000720612
9.55054e-05 0.00442633 -0.00072218
0.000110055 0.00442802 -0.000722597
0.000125179 0.00443006 -0.000722075
0.000139085 0.00443239 -0.000720538
0.000149736 0.00443464 -0.000717834
0.00015489 0.00443611 -0.000713693
0.000152064 0.00443575 -0.000707995
0.00013884 0.00443214 -0.000700616
0.000113101 0.0044235 -0.000691746
7.35603e-05 0.00440788 -0.000681586
2.00973e-05 0.00438312 -0.000670739
-4.46807e-05 0.00434383 -0.000659902
-0.00010534 0.00423663 -0.00064643
-5.26702e-05 0.00344075 -0.000556996
6.21233e-05 0.00460689 -0.000675695
9.78601e-05 0.00578138 -0.000792578
0.000106162 0.00594247 -0.000816655
0.000106889 0.00597931 -0.00082976
0.000109217 0.00599136 -0.0008372
0.000115614 0.00599584 -0.000841181
0.000125794 0.00599803 -0.000843125
0.000138461 0.00599986 -0.000843762
0.000151925 0.00600193 -0.000843353
0.000164251 0.00600423 -0.000841783
0.000173172 0.00600635 -0.000838872
0.000176125 0.00600746 -0.000834284
0.000170178 0.00600627 -0.000827898
0.000152407 0.00600095 -0.000819492
0.000120239 0.00598919 -0.000809322
7.19654e-05 0.00596853 -0.000797702
7.51856e-06 0.00593614 -0.000785271
-6.93797e-05 0.00588357 -0.000773171
-0.000137374 0.00572834 -0.000758765
-6.86869e-05 0.00459215 -0.000655802
8.62631e-05 0.00592089 -0.000782302
0.000136548 0.0075137 -0.00091457
0.000149226 0.00773841 -0.00094036
0.000149273 0.00778864 -0.000954774
0.000149075 0.00780482 -0.000963201
0.000152561 0.00781078 -0.000967807
0.000159977 0.0078135 -0.000970158
0.000170167 0.00781551 -0.000971073
0.0001814 0.00781762 -0.000970847
0.000191623 0.00781991 -0.000969331
0.000198343 0.00782194 -0.000966315
0.000198617 0.00782275 -0.000961399
0.000189014 0.00782072 -0.000954445
0.000165994 0.00781366 -0.000945178
0.00012647 0.00779872 -0.000933713
6.83781e-05 0.00777276 -0.000920554
-8.31611e-06 0.00773204 -0.000906616
-9.84524e-05 0.00766377 -0.000893487
-0.00017377 0.00744797 -0.00087842
-8.68849e-05 0.00590168 -0.000761087
0.000113011 0.00739683 -0.000892295
0.000179874 0.00948174 -0.00103974
0.000197696 0.00978399 -0.00106667
0.000197014 0.00985003 -0.00108211
0.000193875 0.0098708 -0.00109141
0.000193895 0.00987835 -0.00109661
0.000197963 0.00988167 -0.00109938
0.000205095 0.00988394 -0.00110062
0.0002136 0.00988622 -0.00110066
0.000221303 0.0098887 -0.00109932
0.000225451 0.00989089 -0.00109636
0.000222652 0.00989172 -0.00109132
0.000208956 0.00988926 -0.00108392
0.000180166 0.00988084 -0.00107396
0.000132519 0.00986307 -0.00106145
6.34697e-05 0.00983198 -0.00104693
-2.69437e-05 0.00978247 -0.00103164
-0.000131648 0.0096959 -0.00101768
-0.000214604 0.00940542 -0.00100228
-0.000107302 0.0073749 -0.00087002
0.000142162 0.00903552 -0.00100321
0.000227361 0.0116893 -0.00116519
0.000250891 0.0120836 -0.00119248
0.000249317 0.0121676 -0.00120856
0.000242791 0.0121931 -0.00121851
0.00023882 0.0122021 -0.00122422
0.000239039 0.012206 -0.00122738
0.000242715 0.0122086 -0.00122898
0.00024819 0.0122113 -0.00122938
0.000253129 0.0122143 -0.00122837
0.00025457 0.0122171 -0.00122563
0.000248603 0.0122187 -0.0012208
0.000230667 0.0122168 -0.00121331
0.000195878 0.0122081 -0.00120289
0.000139588 0.0121887 -0.00118959
5.85651e-05 0.0121534 -0.00117399
-4.70686e-05 0.0120954 -0.00115761
-0.000167926 0.0119881 -0.00114304
-0.000259027 0.0116074 -0.00112775
-0.000129513 0.00901413 -0.000980405
0.000173072 0.0108355 -0.00111402
0.000277696 0.0141372 -0.00128967
0.000307045 0.0146382 -0.0013164
0.000304209 0.0147415 -0.00133256
0.000293824 0.014771 -0.00134287
0.000285468 0.014781 -0.00134891
0.000281553 0.0147852 -0.0013524
0.0002816 0.0147882 -0.00135438
0.00028402 0.0147915 -0.00135517
0.000286302 0.0147956 -0.00135471
0.000285325 0.0147999 -0.00135239
0.000276675 0.0148034 -0.001348
0.000255048 0.0148036 -0.00134091
0.000214674 0.0147969 -0.00133056
0.000149762 0.0147782 -0.00131698
5.61491e-05 0.014741 -0.00130078
-6.60574e-05 0.0146758 -0.00128372
-0.000204957 0.0145458 -0.00126896
-0.000305377 0.0140583 -0.00125405
-0.000152688 0.0108197 -0.00109149
0.000204509 0.0127974 -0.00122676
0.000328374 0.0168275 -0.0014156
0.000362794 0.0174489 -0.00144076
0.000357957 0.0175716 -0.00145628
0.000343233 0.0176036 -0.0014665
0.00033027 0.0176134 -0.00147261
0.000322247 0.0176174 -0.00147626
0.000318876 0.0176207 -0.00147859
0.000318677 0.0176249 -0.00147977
0.000319006 0.0176305 -0.00148007
0.000316519 0.0176374 -0.00147866
0.000306446 0.0176445 -0.00147511
0.0002827 0.0176493 -0.00146885
0.000238295 0.0176479 -0.00145921
0.000165912 0.017634 -0.00144607
5.99987e-05 0.0175993 -0.00142993
-7.974e-05 0.0175304 -0.00141277
-0.000238769 0.017377 -0.00139842
-0.000350657 0.0167651 -0.00138425
-0.000175328 0.0127944 -0.00120556
0.000234362 0.014933 -0.00134943
0.000375023 0.019774 -0.00155237
0.000412316 0.0205275 -0.00157493
0.000404145 0.0206673 -0.00158894
0.000384612 0.0206987 -0.00159846
0.000367166 0.0207064 -0.00160428
0.000355526 0.0207092 -0.00160786
0.000349471 0.0207123 -0.00161052
0.000347577 0.0207175 -0.00161216
0.000347353 0.0207252 -0.00161307
0.000345267 0.0207356 -0.00161273
0.000336203 0.0207482 -0.0016105
0.000313374 0.0207608 -0.00160565
0.000268282 0.0207693 -0.00159747
0.000191587 0.0207664 -0.00158566
7.54634e-05 0.0207416 -0.00157056
-8.17371e-05 0.0206759 -0.00155418
-0.000263118 0.020501 -0.0015408
-0.00039 0.0197473 -0.00152763
-0.000195 0.0149515 -0.00133081
0.000259117 0.0172822 -0.0015009
0.0004103 0.0230203 -0.00172224
0.000445932 0.0239134 -0.00174138
0.000432256 0.0240643 -0.00175284
0.00040751 0.0240899 -0.0017609
0.000386182 0.0240925 -0.00176596
0.000372024 0.0240926 -0.00176911
0.000364765 0.0240948 -0.0017718
0.0003629 0.0241005 -0.00177404
0.000364214 0.0241105 -0.0017757
0.00036541 0.0241253 -0.00177646
0.000361289 0.0241452 -0.0017758
0.000344426 0.024169 -0.00177292
0.000304693 0.024193 -0.00176707
0.000230119 0.0242098 -0.00175766
0.000109213 0.024206 -0.00174488
-6.28716e-05 0.0241556 -0.00173054
-0.000268347 0.0239663 -0.00171898
-0.000416023 0.0230549 -0.00170669
-0.000208012 0.0173319 -0.00148623
0.000272794 0.019944 -0.00172041
0.000421815 0.0266748 -0.00197147
0.000447579 0.0277073 -0.00198683
0.000425102 0.0278577 -0.00199453
0.000395039 0.0278694 -0.00200015
0.000371324 0.0278629 -0.00200387
0.000356631 0.0278584 -0.00200645
0.000350457 0.0278587 -0.00200871
0.000351302 0.0278643 -0.00201109
0.000357322 0.0278759 -0.00201341
0.000365769 0.027895 -0.00201534
0.000371946 0.0279231 -0.00201643
0.000368315 0.0279607 -0.00201593
0.00034347 0.0280059 -0.00201313
0.000282294 0.0280524 -0.00200726
0.000167861 0.0280852 -0.00199822
-1.12001e-05 0.0280697 -0.00198749
-0.000240177 0.0278824 -0.00197894
-0.000416925 0.0268031 -0.00196714
-0.000208463 0.0200333 -0.00171093
0.000264537 0.0231379 -0.00208778
0.000387845 0.0309775 -0.0023939
0.000390093 0.0321351 -0.00240611
0.000354369 0.032265 -0.00240869
0.000319691 0.0322519 -0.00241077
0.000296606 0.0322313 -0.00241211
0.000285087 0.0322197 -0.00241367
0.000283633 0.0322166 -0.00241547
0.000290853 0.0322207 -0.00241772
0.00030559 0.0322326 -0.00242037
0.000326139 0.0322547 -0.00242319
0.000349165 0.03229 -0.00242584
0.00036815 0.0323416 -0.00242779
0.000371671 0.0324115 -0.00242841
0.00034182 0.0324971 -0.00242697
0.00025462 0.032585 -0.00242314
8.70553e-05 0.0326334 -0.00241786
-0.000157783 0.0324801 -0.00241387
-0.000373941 0.0312371 -0.00240145
-0.000186971 0.02327 -0.00208426
0.000213002 0.0273328 -0.00277131
0.000268287 0.0364393 -0.0031866
0.000225758 0.0376827 -0.00319798
0.000171962 0.0377601 -0.00319387
0.000135624 0.0377085 -0.0031914
0.000118585 0.037669 -0.00318976
0.000116324 0.0376484 -0.00318935
0.000125465 0.0376402 -0.00319006
0.00014452 0.037641 -0.00319169
0.000173243 0.0376509 -0.00319416
0.000211618 0.0376727 -0.00319734
0.000258772 0.0377113 -0.00320103
0.000311095 0.0377732 -0.00320504
0.000359744 0.0378656 -0.00320892
0.000386677 0.0379939 -0.00321223
0.000361388 0.0381531 -0.00321462
0.00024347 0.0383019 -0.00321656
8.65844e-06 0.0382387 -0.00321912
-0.000254609 0.0368687 -0.0032042
-0.000127304 0.0274994 -0.00277353
7.17441e-05 0.0335488 -0.00415044
-1.58454e-05 0.0441558 -0.00478962
-0.000133074 0.0454007 -0.00480563
-0.000207216 0.045382 -0.0047933
-0.000236646 0.0452788 -0.00478446
-0.000236637 0.0452172 -0.00477906
-0.000218992 0.0451862 -0.00477619
-0.000189454 0.0451713 -0.00477511
-0.000149676 0.0451664 -0.00477545
-9.89159e-05 0.045171 -0.00477703
-3.51158e-05 0.045188 -0.00477976
4.42196e-05 0.045223 -0.00478369
0.000140738 0.0452856 -0.00478881
0.000252301 0.0453891 -0.00479507
0.000367254 0.0455502 -0.00480248
0.000455334 0.0457822 -0.004811
0.000458335 0.0460628 -0.00482097
0.000302138 0.0461719 -0.00483167
4.27117e-06 0.0447794 -0.00481064
2.13558e-06 0.0337207 -0.00415694
-0.000271745 0.0440489 -0.00708081
-0.000630552 0.056479 -0.00816928
-0.000853132 0.0575675 -0.00819974
-0.000934979 0.0574075 -0.00817972
-0.000933402 0.0572497 -0.00816381
-0.000891301 0.0571682 -0.0081536
-0.000830287 0.057127 -0.00814738
-0.000758848 0.0571042 -0.0081438
-0.000678884 0.0570916 -0.00814215
-0.000588876 0.0570877 -0.00814211
-0.000484942 0.0570947 -0.00814362
-0.00036102 0.0571182 -0.00814686
-0.000208907 0.0571682 -0.00815201
-1.96024e-05 0.0572615 -0.00815942
0.000212207 0.0574252 -0.0081694
0.000475154 0.0576966 -0.00818234
0.000714089 0.058099 -0.00819873
0.000795394 0.0584574 -0.00821645
0.000555138 0.0572624 -0.00818258
0.000277569 0.0441763 -0.00709065
-0.00110933 0.0617891 -0.0113413
-0.00191304 0.0758835 -0.0129219
-0.00220766 0.07658 -0.0129709
-0.00221078 0.0762887 -0.0129478
-0.00209174 0.0761053 -0.012926
-0.00193121 0.0760183 -0.012911
-0.00176069 0.0759732 -0.0129014
-0.00159042 0.0759456 -0.0128952
-0.00142206 0.0759272 -0.0128916
-0.00125324 0.0759161 -0.01289
-0.00107879 0.0759131 -0.0128904
-0.000890089 0.075922 -0.0128929
-0.000673428 0.07595 -0.0128981
-0.000407423 0.0760112 -0.0129066
-6.07949e-05 0.0761326 -0.0129188
0.000403766 0.0763626 -0.0129353
0.00100124 0.0767716 -0.0129548
0.00162125 0.0773155 -0.0129717
0.0017971 0.0766245 -0.0129216
0.000898548 0.0618482 -0.0113607
-0.00291818 0.0308946 0.0427623
-0.0038837 0.0379418 0.0472557
-0.00377325 0.03829 0.0472999
-0.00334119 0.0381443 0.0473048
-0.00287421 0.0380527 0.047326
-0.0024528 0.0380092 0.0473429
-0.00208955 0.0379866 0.0473537
-0.00177817 0.0379728 0.0473604
-0.00150851 0.0379636 0.0473642
-0.00127042 0.037958 0.0473657
-0.00105381 0.0379566 0.047365
-0.000847278 0.037961 0.0473614
-0.000635454 0.037975 0.047354
-0.000393491 0.0380056 0.0473412
-7.64033e-05 0.0380663 0.0473207
0.0004024 0.0381813 0.047291
0.00120462 0.0383858 0.0472563
0.00254819 0.0386577 0.0472413
0.00411609 0.0383123 0.0471942
0.00205805 0.0309241 0.0427316
-3.14725e-05 0.000310356 -0.00064464
-4.29716e-05 0.000370584 -0.000770767
-4.63887e-05 0.00037698 -0.000797352
-4.2071e-05 0.000378223 -0.000810396
-3.13486e-05 0.000378682 -0.000817585
-1.60127e-05 0.000379115 -0.000821557
2.21691e-06 0.000379684 -0.000823687
2.18218e-05 0.000380413 -0.000824615
4.14954e-05 0.00038129 -0.000824458
5.99741e-05 0.000382284 -0.000823114
7.60144e-05 0.000383346 -0.000820313
8.82974e-05 0.000384412 -0.000815781
9.54243e-05 0.000385308 -0.000809382
9.61247e-05 0.000385828 -0.00080104
8.94573e-05 0.000385777 -0.000790942
7.5135e-05 0.000384902 -0.000779384
5.36621e-05 0.000382874 -0.000766832
2.6501e-05 0.000379265 -0.000753542
-4.36152e-06 0.000371644 -0.000734707
-2.18076e-06 0.000317522 -0.000621918
-2.33259e-05 0.000905431 -0.000853218
-3.68982e-05 0.00109354 -0.00104723
-4.43152e-05 0.00111523 -0.00108801
-4.32713e-05 0.00111948 -0.00110657
-3.42071e-05 0.00112063 -0.00111631
-1.87121e-05 0.00112129 -0.00112147
1.42486e-06 0.00112215 -0.00112405
2.44773e-05 0.0011234 -0.00112501
4.88458e-05 0.00112507 -0.00112454
7.29104e-05 0.00112711 -0.00112245
9.49912e-05 0.00112937 -0.00111846
0.000113171 0.00113162 -0.00111218
0.000125392 0.00113348 -0.00110338
0.000129731 0.00113445 -0.00109197
0.000124539 0.00113394 -0.0010781
0.000108818 0.00113125 -0.00106209
8.25412e-05 0.00112549 -0.00104454
4.70617e-05 0.00111525 -0.00102547
5.70485e-06 0.00109069 -0.000996734
2.85242e-06 0.000911236 -0.000827531
-8.2769e-06 0.0017107 -0.00103669
-1.58336e-05 0.00210445 -0.00127475
-2.21656e-05 0.00215242 -0.00132557
-2.16154e-05 0.00216191 -0.00134858
-1.33018e-05 0.00216431 -0.00136054
1.625e-06 0.00216522 -0.00136674
2.1516e-05 0.0021662 -0.0013698
4.46819e-05 0.00216774 -0.00137084
6.94972e-05 0.00216994 -0.00137015
9.42247e-05 0.00217276 -0.00136755
0.00011699 0.00217595 -0.00136266
0.000135628 0.00217908 -0.00135505
0.000147755 0.00218154 -0.00134438
0.000151032 0.00218251 -0.00133048
0.000143348 0.00218084 -0.00131349
0.00012317 0.0021753 -0.00129376
8.99359e-05 0.00216433 -0.00127191
4.45114e-05 0.00214488 -0.00124811
-7.68393e-06 0.00209338 -0.00121247
-3.84196e-06 0.00171316 -0.00100695
1.00995e-05 0.00271151 -0.00126277
1.18552e-05 0.00339737 -0.0015494
8.38362e-06 0.00348534 -0.00161033
9.31416e-06 0.00350285 -0.00163807
1.73441e-05 0.00350732 -0.00165254
3.19772e-05 0.00350869 -0.00166005
5.17593e-05 0.00350977 -0.00166374
7.50298e-05 0.00351145 -0.00166503
0.000100108 0.00351397 -0.00166425
0.000125103 0.00351726 -0.00166125
0.000147915 0.00352101 -0.00165553
0.000166124 0.00352465 -0.00164656
0.00017698 0.00352725 -0.0016339
0.000177591 0.0035276 -0.00161728
0.000165369 0.00352402 -0.00159679
0.000138192 0.00351463 -0.00157293
9.49495e-05 0.00349708 -0.00154643
3.64705e-05 0.00346582 -0.00151753
-2.77596e-05 0.00337502 -0.00147492
-1.38798e-05 0.00270959 -0.00122818
3.13212e-05 0.00391494 -0.00152502
4.50149e-05 0.00498906 -0.00186595
4.56149e-05 0.00513392 -0.00193729
4.72639e-05 0.00516287 -0.00196996
5.49166e-05 0.00517044 -0.00198713
6.89899e-05 0.00517265 -0.0019961
8.83315e-05 0.0051739 -0.00200057
0.00011133 0.00517565 -0.00200223
0.000136235 0.00517829 -0.0020015
0.000161031 0.00518181 -0.00199819
0.000183426 0.0051858 -0.00199173
0.000200616 0.00518956 -0.00198143
0.000209462 0.00519184 -0.00196668
0.000206484 0.00519104 -0.00194721
0.000188485 0.00518482 -0.00192302
0.000152728 0.00517054 -0.00189463
9.75932e-05 0.00514495 -0.0018631
2.41837e-05 0.00509868 -0.00182902
-5.25383e-05 0.00495296 -0.00177928
-2.62692e-05 0.00390808 -0.00148561
5.57171e-05 0.00533512 -0.00181523
8.39969e-05 0.0069038 -0.00221494
8.98308e-05 0.00712569 -0.00229674
9.2392e-05 0.00717021 -0.00233436
9.94046e-05 0.00718207 -0.00235432
0.00011242 0.00718556 -0.00236486
0.000130695 0.00718717 -0.0023702
0.000152714 0.00718898 -0.00237235
0.00017673 0.00719165 -0.00237183
0.000200605 0.00719519 -0.00236836
0.000221854 0.00719919 -0.00236125
0.000237294 0.00720277 -0.00234975
0.000243352 0.00720437 -0.00233302
0.000235834 0.00720185 -0.00231072
0.000210843 0.00719236 -0.00228276
0.000165053 0.00717231 -0.00224972
9.63147e-05 0.00713713 -0.00221296
6.31437e-06 0.00707186 -0.00217363
-8.31727e-05 0.00685222 -0.00211668
-4.15864e-05 0.00532325 -0.00177126
8.37231e-05 0.00698605 -0.00212552
0.000129415 0.00916569 -0.00258693
0.000141698 0.00948793 -0.00267887
0.000145341 0.00955278 -0.00272125
0.000151356 0.00957021 -0.00274395
0.00016269 0.00957547 -0.00275605
0.000179129 0.00957762 -0.00276235
0.00019934 0.00957959 -0.00276511
0.000221609 0.00958225 -0.00276494
0.000243713 0.00958578 -0.00276155
0.000262997 0.0095897 -0.00275407
0.000275866 0.00959298 -0.00274169
0.000278217 0.00959377 -0.00272325
0.000265239 0.00958928 -0.00269825
0.000232136 0.00957597 -0.00266657
0.0001748 0.00954935 -0.00262886
9.05768e-05 0.00950301 -0.00258686
-1.7803e-05 0.00941406 -0.00254232
-0.000120422 0.00909795 -0.00247821
-6.02111e-05 0.00696957 -0.0020775
0.000115584 0.00887784 -0.00244786
0.00018161 0.0117943 -0.00297225
0.000201556 0.0122432 -0.00307353
0.000206409 0.0123336 -0.00312019
0.000210994 0.0123578 -0.00314539
0.00021996 0.0123652 -0.00315895
0.000233755 0.0123681 -0.0031662
0.000251274 0.0123704 -0.00316971
0.000270932 0.0123732 -0.0031701
0.000290447 0.0123769 -0.00316711
0.000306967 0.0123809 -0.00315965
0.00031655 0.012384 -0.00314683
0.000314378 0.0123841 -0.00312729
0.000294972 0.0123778 -0.00310015
0.000252628 0.0123607 -0.00306514
0.000182234 0.0123271 -0.00302304
8.0576e-05 0.0122682 -0.00297601
-4.81917e-05 0.0121503 -0.00292642
-0.00016455 0.0117117 -0.00285529
-8.22748e-05 0.00885817 -0.00239662
0.0001512 0.011015 -0.00277472
0.000240317 0.0148025 -0.0033618
0.000268957 0.0154067 -0.00347109
0.000275008 0.015528 -0.00352117
0.000277664 0.0155599 -0.00354837
0.000283549 0.0155697 -0.00356316
0.000293912 0.0155735 -0.00357127
0.000307982 0.0155763 -0.00357556
0.000324298 0.0155796 -0.00357673
0.000340566 0.0155837 -0.00357455
0.000353639 0.0155883 -0.00356779
0.00035935 0.0155919 -0.00355517
0.000352211 0.0155919 -0.00353524
0.000325822 0.0155847 -0.0035068
0.000273346 0.0155646 -0.00346931
0.000188493 0.0155245 -0.00342356