# vtk DataFile Version 2.0 
Visualization 
ASCII 
DATASET STRUCTURED_GRID 
DIMENSIONS 21 21 11
POINTS 4851 float
-0.1 -0.1 -0.1
0 -0.1 -0.1
0.1 -0.1 -0.1
0.2 -0.1 -0.1
0.3 -0.1 -0.1
0.4 -0.1 -0.1
0.5 -0.1 -0.1
0.6 -0.1 -0.1
0.7 -0.1 -0.1
0.8 -0.1 -0.1
0.9 -0.1 -0.1
1 -0.1 -0.1
1.1 -0.1 -0.1
1.2 -0.1 -0.1
1.3 -0.1 -0.1
1.4 -0.1 -0.1
1.5 -0.1 -0.1
1.6 -0.1 -0.1
1.7 -0.1 -0.1
1.8 -0.1 -0.1
1.9 -0.1 -0.1
-0.1 0 -0.1
0 0 -0.1
0.1 0 -0.1
0.2 0 -0.1
0.3 0 -0.1
0.4 0 -0.1
0.5 0 -0.1
0.6 0 -0.1
0.7 0 -0.1
0.8 0 -0.1
0.9 0 -0.1
1 0 -0.1
1.1 0 -0.1
1.2 0 -0.1
1.3 0 -0.1
1.4 0 -0.1
1.5 0 -0.1
1.6 0 -0.1
1.7 0 -0.1
1.8 0 -0.1
1.9 0 -0.1
-0.1 0.1 -0.1
0 0.1 -0.1
0.1 0.1 -0.1
0.2 0.1 -0.1
0.3 0.1 -0.1
0.4 0.1 -0.1
0.5 0.1 -0.1
0.6 0.1 -0.1
0.7 0.1 -0.1
0.8 0.1 -0.1
0.9 0.1 -0.1
1 0.1 -0.1
1.1 0.1 -0.1
1.2 0.1 -0.1
1.3 0.1 -0.1
1.4 0.1 -0.1
1.5 0.1 -0.1
1.6 0.1 -0.1
1.7 0.1 -0.1
1.8 0.1 -0.1
1.9 0.1 -0.1
-0.1 0.2 -0.1
0 0.2 -0.1
0.1 0.2 -0.1
0.2 0.2 -0.1
0.3 0.2 -0.1
0.4 0.2 -0.1
0.5 0.2 -0.1
0.6 0.2 -0.1
0.7 0.2 -0.1
0.8 0.2 -0.1
0.9 0.2 -0.1
1 0.2 -0.1
1.1 0.2 -0.1
1.2 0.2 -0.1
1.3 0.2 -0.1
1.4 0.2 -0.1
1.5 0.2 -0.1
1.6 0.2 -0.1
1.7 0.2 -0.1
1.8 0.2 -0.1
1.9 0.2 -0.1
-0.1 0.3 -0.1
0 0.3 -0.1
0.1 0.3 -0.1
0.2 0.3 -0.1
0.3 0.3 -0.1
0.4 0.3 -0.1
0.5 0.3 -0.1
0.6 0.3 -0.1
0.7 0.3 -0.1
0.8 0.3 -0.1
0.9 0.3 -0.1
1 0.3 -0.1
1.1 0.3 -0.1
1.2 0.3 -0.1
1.3 0.3 -0.1
1.4 0.3 -0.1
1.5 0.3 -0.1
1.6 0.3 -0.1
1.7 0.3 -0.1
1.8 0.3 -0.1
1.9 0.3 -0.1
-0.1 0.4 -0.1
0 0.4 -0.1
0.1 0.4 -0.1
0.2 0.4 -0.1
0.3 0.4 -0.1
0.4 0.4 -0.1
0.5 0.4 -0.1
0.6 0.4 -0.1
0.7 0.4 -0.1
0.8 0.4 -0.1
0.9 0.4 -0.1
1 0.4 -0.1
1.1 0.4 -0.1
1.2 0.4 -0.1
1.3 0.4 -0.1
1.4 0.4 -0.1
1.5 0.4 -0.1
1.6 0.4 -0.1
1.7 0.4 -0.1
1.8 0.4 -0.1
1.9 0.4 -0.1
-0.1 0.5 -0.1
0 0.5 -0.1
0.1 0.5 -0.1
0.2 0.5 -0.1
0.3 0.5 -0.1
0.4 0.5 -0.1
0.5 0.5 -0.1
0.6 0.5 -0.1
0.7 0.5 -0.1
0.8 0.5 -0.1
0.9 0.5 -0.1
1 0.5 -0.1
1.1 0.5 -0.1
1.2 0.5 -0.1
1.3 0.5 -0.1
1.4 0.5 -0.1
1.5 0.5 -0.1
1.6 0.5 -0.1
1.7 0.5 -0.1
1.8 0.5 -0.1
1.9 0.5 -0.1
-0.1 0.6 -0.1
0 0.6 -0.1
0.1 0.6 -0.1
0.2 0.6 -0.1
0.3 0.6 -0.1
0.4 0.6 -0.1
0.5 0.6 -0.1
0.6 0.6 -0.1
0.7 0.6 -0.1
0.8 0.6 -0.1
0.9 0.6 -0.1
1 0.6 -0.1
1.1 0.6 -0.1
1.2 0.6 -0.1
1.3 0.6 -0.1
1.4 0.6 -0.1
1.5 0.6 -0.1
1.6 0.6 -0.1
1.7 0.6 -0.1
1.8 0.6 -0.1
1.9 0.6 -0.1
-0.1 0.7 -0.1
0 0.7 -0.1
0.1 0.7 -0.1
0.2 0.7 -0.1
0.3 0.7 -0.1
0.4 0.7 -0.1
0.5 0.7 -0.1
0.6 0.7 -0.1
0.7 0.7 -0.1
0.8 0.7 -0.1
0.9 0.7 -0.1
1 0.7 -0.1
1.1 0.7 -0.1
1.2 0.7 -0.1
1.3 0.7 -0.1
1.4 0.7 -0.1
1.5 0.7 -0.1
1.6 0.7 -0.1
1.7 0.7 -0.1
1.8 0.7 -0.1
1.9 0.7 -0.1
-0.1 0.8 -0.1
0 0.8 -0.1
0.1 0.8 -0.1
0.2 0.8 -0.1
0.3 0.8 -0.1
0.4 0.8 -0.1
0.5 0.8 -0.1
0.6 0.8 -0.1
0.7 0.8 -0.1
0.8 0.8 -0.1
0.9 0.8 -0.1
1 0.8 -0.1
1.1 0.8 -0.1
1.2 0.8 -0.1
1.3 0.8 -0.1
1.4 0.8 -0.1
1.5 0.8 -0.1
1.6 0.8 -0.1
1.7 0.8 -0.1
1.8 0.8 -0.1
1.9 0.8 -0.1
-0.1 0.9 -0.1
0 0.9 -0.1
0.1 0.9 -0.1
0.2 0.9 -0.1
0.3 0.9 -0.1
0.4 0.9 -0.1
0.5 0.9 -0.1
0.6 0.9 -0.1
0.7 0.9 -0.1
0.8 0.9 -0.1
0.9 0.9 -0.1
1 0.9 -0.1
1.1 0.9 -0.1
1.2 0.9 -0.1
1.3 0.9 -0.1
1.4 0.9 -0.1
1.5 0.9 -0.1
1.6 0.9 -0.1
1.7 0.9 -0.1
1.8 0.9 -0.1
1.9 0.9 -0.1
-0.1 1 -0.1
0 1 -0.1
0.1 1 -0.1
0.2 1 -0.1
0.3 1 -0.1
0.4 1 -0.1
0.5 1 -0.1
0.6 1 -0.1
0.7 1 -0.1
0.8 1 -0.1
0.9 1 -0.1
1 1 -0.1
1.1 1 -0.1
1.2 1 -0.1
1.3 1 -0.1
1.4 1 -0.1
1.5 1 -0.1
1.6 1 -0.1
1.7 1 -0.1
1.8 1 -0.1
1.9 1 -0.1
-0.1 1.1 -0.1
0 1.1 -0.1
0.1 1.1 -0.1
0.2 1.1 -0.1
0.3 1.1 -0.1
0.4 1.1 -0.1
0.5 1.1 -0.1
0.6 1.1 -0.1
0.7 1.1 -0.1
0.8 1.1 -0.1
0.9 1.1 -0.1
1 1.1 -0.1
1.1 1.1 -0.1
1.2 1.1 -0.1
1.3 1.1 -0.1
1.4 1.1 -0.1
1.5 1.1 -0.1
1.6 1.1 -0.1
1.7 1.1 -0.1
1.8 1.1 -0.1
1.9 1.1 -0.1
-0.1 1.2 -0.1
0 1.2 -0.1
0.1 1.2 -0.1
0.2 1.2 -0.1
0.3 1.2 -0.1
0.4 1.2 -0.1
0.5 1.2 -0.1
0.6 1.2 -0.1
0.7 1.2 -0.1
0.8 1.2 -0.1
0.9 1.2 -0.1
1 1.2 -0.1
1.1 1.2 -0.1
1.2 1.2 -0.1
1.3 1.2 -0.1
1.4 1.2 -0.1
1.5 1.2 -0.1
1.6 1.2 -0.1
1.7 1.2 -0.1
1.8 1.2 -0.1
1.9 1.2 -0.1
-0.1 1.3 -0.1
0 1.3 -0.1
0.1 1.3 -0.1
0.2 1.3 -0.1
0.3 1.3 -0.1
0.4 1.3 -0.1
0.5 1.3 -0.1
0.6 1.3 -0.1
0.7 1.3 -0.1
0.8 1.3 -0.1
0.9 1.3 -0.1
1 1.3 -0.1
1.1 1.3 -0.1
1.2 1.3 -0.1
1.3 1.3 -0.1
1.4 1.3 -0.1
1.5 1.3 -0.1
1.6 1.3 -0.1
1.7 1.3 -0.1
1.8 1.3 -0.1
1.9 1.3 -0.1
-0.1 1.4 -0.1
0 1.4 -0.1
0.1 1.4 -0.1
0.2 1.4 -0.1
0.3 1.4 -0.1
0.4 1.4 -0.1
0.5 1.4 -0.1
0.6 1.4 -0.1
0.7 1.4 -0.1
0.8 1.4 -0.1
0.9 1.4 -0.1
1 1.4 -0.1
1.1 1.4 -0.1
1.2 1.4 -0.1
1.3 1.4 -0.1
1.4 1.4 -0.1
1.5 1.4 -0.1
1.6 1.4 -0.1
1.7 1.4 -0.1
1.8 1.4 -0.1
1.9 1.4 -0.1
-0.1 1.5 -0.1
0 1.5 -0.1
0.1 1.5 -0.1
0.2 1.5 -0.1
0.3 1.5 -0.1
0.4 1.5 -0.1
0.5 1.5 -0.1
0.6 1.5 -0.1
0.7 1.5 -0.1
0.8 1.5 -0.1
0.9 1.5 -0.1
1 1.5 -0.1
1.1 1.5 -0.1
1.2 1.5 -0.1
1.3 1.5 -0.1
1.4 1.5 -0.1
1.5 1.5 -0.1
1.6 1.5 -0.1
1.7 1.5 -0.1
1.8 1.5 -0.1
1.9 1.5 -0.1
-0.1 1.6 -0.1
0 1.6 -0.1
0.1 1.6 -0.1
0.2 1.6 -0.1
0.3 1.6 -0.1
0.4 1.6 -0.1
0.5 1.6 -0.1
0.6 1.6 -0.1
0.7 1.6 -0.1
0.8 1.6 -0.1
0.9 1.6 -0.1
1 1.6 -0.1
1.1 1.6 -0.1
1.2 1.6 -0.1
1.3 1.6 -0.1
1.4 1.6 -0.1
1.5 1.6 -0.1
1.6 1.6 -0.1
1.7 1.6 -0.1
1.8 1.6 -0.1
1.9 1.6 -0.1
-0.1 1.7 -0.1
0 1.7 -0.1
0.1 1.7 -0.1
0.2 1.7 -0.1
0.3 1.7 -0.1
0.4 1.7 -0.1
0.5 1.7 -0.1
0.6 1.7 -0.1
0.7 1.7 -0.1
0.8 1.7 -0.1
0.9 1.7 -0.1
1 1.7 -0.1
1.1 1.7 -0.1
1.2 1.7 -0.1
1.3 1.7 -0.1
1.4 1.7 -0.1
1.5 1.7 -0.1
1.6 1.7 -0.1
1.7 1.7 -0.1
1.8 1.7 -0.1
1.9 1.7 -0.1
-0.1 1.8 -0.1
0 1.8 -0.1
0.1 1.8 -0.1
0.2 1.8 -0.1
0.3 1.8 -0.1
0.4 1.8 -0.1
0.5 1.8 -0.1
0.6 1.8 -0.1
0.7 1.8 -0.1
0.8 1.8 -0.1
0.9 1.8 -0.1
1 1.8 -0.1
1.1 1.8 -0.1
1.2 1.8 -0.1
1.3 1.8 -0.1
1.4 1.8 -0.1
1.5 1.8 -0.1
1.6 1.8 -0.1
1.7 1.8 -0.1
1.8 1.8 -0.1
1.9 1.8 -0.1
-0.1 1.9 -0.1
0 1.9 -0.1
0.1 1.9 -0.1
0.2 1.9 -0.1
0.3 1.9 -0.1
0.4 1.9 -0.1
0.5 1.9 -0.1
0.6 1.9 -0.1
0.7 1.9 -0.1
0.8 1.9 -0.1
0.9 1.9 -0.1
1 1.9 -0.1
1.1 1.9 -0.1
1.2 1.9 -0.1
1.3 1.9 -0.1
1.4 1.9 -0.1
1.5 1.9 -0.1
1.6 1.9 -0.1
1.7 1.9 -0.1
1.8 1.9 -0.1
1.9 1.9 -0.1
-0.1 -0.1 0
0 -0.1 0
0.1 -0.1 0
0.2 -0.1 0
0.3 -0.1 0
0.4 -0.1 0
0.5 -0.1 0
0.6 -0.1 0
0.7 -0.1 0
0.8 -0.1 0
0.9 -0.1 0
1 -0.1 0
1.1 -0.1 0
1.2 -0.1 0
1.3 -0.1 0
1.4 -0.1 0
1.5 -0.1 0
1.6 -0.1 0
1.7 -0.1 0
1.8 -0.1 0
1.9 -0.1 0
-0.1 0 0
0 0 0
0.1 0 0
0.2 0 0
0.3 0 0
0.4 0 0
0.5 0 0
0.6 0 0
0.7 0 0
0.8 0 0
0.9 0 0
1 0 0
1.1 0 0
1.2 0 0
1.3 0 0
1.4 0 0
1.5 0 0
1.6 0 0
1.7 0 0
1.8 0 0
1.9 0 0
-0.1 0.1 0
0 0.1 0
0.1 0.1 0
0.2 0.1 0
0.3 0.1 0
0.4 0.1 0
0.5 0.1 0
0.6 0.1 0
0.7 0.1 0
0.8 0.1 0
0.9 0.1 0
1 0.1 0
1.1 0.1 0
1.2 0.1 0
1.3 0.1 0
1.4 0.1 0
1.5 0.1 0
1.6 0.1 0
1.7 0.1 0
1.8 0.1 0
1.9 0.1 0
-0.1 0.2 0
0 0.2 0
0.1 0.2 0
0.2 0.2 0
0.3 0.2 0
0.4 0.2 0
0.5 0.2 0
0.6 0.2 0
0.7 0.2 0
0.8 0.2 0
0.9 0.2 0
1 0.2 0
1.1 0.2 0
1.2 0.2 0
1.3 0.2 0
1.4 0.2 0
1.5 0.2 0
1.6 0.2 0
1.7 0.2 0
1.8 0.2 0
1.9 0.2 0
-0.1 0.3 0
0 0.3 0
0.1 0.3 0
0.2 0.3 0
0.3 0.3 0
0.4 0.3 0
0.5 0.3 0
0.6 0.3 0
0.7 0.3 0
0.8 0.3 0
0.9 0.3 0
1 0.3 0
1.1 0.3 0
1.2 0.3 0
1.3 0.3 0
1.4 0.3 0
1.5 0.3 0
1.6 0.3 0
1.7 0.3 0
1.8 0.3 0
1.9 0.3 0
-0.1 0.4 0
0 0.4 0
0.1 0.4 0
0.2 0.4 0
0.3 0.4 0
0.4 0.4 0
0.5 0.4 0
0.6 0.4 0
0.7 0.4 0
0.8 0.4 0
0.9 0.4 0
1 0.4 0
1.1 0.4 0
1.2 0.4 0
1.3 0.4 0
1.4 0.4 0
1.5 0.4 0
1.6 0.4 0
1.7 0.4 0
1.8 0.4 0
1.9 0.4 0
-0.1 0.5 0
0 0.5 0
0.1 0.5 0
0.2 0.5 0
0.3 0.5 0
0.4 0.5 0
0.5 0.5 0
0.6 0.5 0
0.7 0.5 0
0.8 0.5 0
0.9 0.5 0
1 0.5 0
1.1 0.5 0
1.2 0.5 0
1.3 0.5 0
1.4 0.5 0
1.5 0.5 0
1.6 0.5 0
1.7 0.5 0
1.8 0.5 0
1.9 0.5 0
-0.1 0.6 0
0 0.6 0
0.1 0.6 0
0.2 0.6 0
0.3 0.6 0
0.4 0.6 0
0.5 0.6 0
0.6 0.6 0
0.7 0.6 0
0.8 0.6 0
0.9 0.6 0
1 0.6 0
1.1 0.6 0
1.2 0.6 0
1.3 0.6 0
1.4 0.6 0
1.5 0.6 0
1.6 0.6 0
1.7 0.6 0
1.8 0.6 0
1.9 0.6 0
-0.1 0.7 0
0 0.7 0
0.1 0.7 0
0.2 0.7 0
0.3 0.7 0
0.4 0.7 0
0.5 0.7 0
0.6 0.7 0
0.7 0.7 0
0.8 0.7 0
0.9 0.7 0
1 0.7 0
1.1 0.7 0
1.2 0.7 0
1.3 0.7 0
1.4 0.7 0
1.5 0.7 0
1.6 0.7 0
1.7 0.7 0
1.8 0.7 0
1.9 0.7 0
-0.1 0.8 0
0 0.8 0
0.1 0.8 0
0.2 0.8 0
0.3 0.8 0
0.4 0.8 0
0.5 0.8 0
0.6 0.8 0
0.7 0.8 0
0.8 0.8 0
0.9 0.8 0
1 0.8 0
1.1 0.8 0
1.2 0.8 0
1.3 0.8 0
1.4 0.8 0
1.5 0.8 0
1.6 0.8 0
1.7 0.8 0
1.8 0.8 0
1.9 0.8 0
-0.1 0.9 0
0 0.9 0
0.1 0.9 0
0.2 0.9 0
0.3 0.9 0
0.4 0.9 0
0.5 0.9 0
0.6 0.9 0
0.7 0.9 0
0.8 0.9 0
0.9 0.9 0
1 0.9 0
1.1 0.9 0
1.2 0.9 0
1.3 0.9 0
1.4 0.9 0
1.5 0.9 0
1.6 0.9 0
1.7 0.9 0
1.8 0.9 0
1.9 0.9 0
-0.1 1 0
0 1 0
0.1 1 0
0.2 1 0
0.3 1 0
0.4 1 0
0.5 1 0
0.6 1 0
0.7 1 0
0.8 1 0
0.9 1 0
1 1 0
1.1 1 0
1.2 1 0
1.3 1 0
1.4 1 0
1.5 1 0
1.6 1 0
1.7 1 0
1.8 1 0
1.9 1 0
-0.1 1.1 0
0 1.1 0
0.1 1.1 0
0.2 1.1 0
0.3 1.1 0
0.4 1.1 0
0.5 1.1 0
0.6 1.1 0
0.7 1.1 0
0.8 1.1 0
0.9 1.1 0
1 1.1 0
1.1 1.1 0
1.2 1.1 0
1.3 1.1 0
1.4 1.1 0
1.5 1.1 0
1.6 1.1 0
1.7 1.1 0
1.8 1.1 0
1.9 1.1 0
-0.1 1.2 0
0 1.2 0
0.1 1.2 0
0.2 1.2 0
0.3 1.2 0
0.4 1.2 0
0.5 1.2 0
0.6 1.2 0
0.7 1.2 0
0.8 1.2 0
0.9 1.2 0
1 1.2 0
1.1 1.2 0
1.2 1.2 0
1.3 1.2 0
1.4 1.2 0
1.5 1.2 0
1.6 1.2 0
1.7 1.2 0
1.8 1.2 0
1.9 1.2 0
-0.1 1.3 0
0 1.3 0
0.1 1.3 0
0.2 1.3 0
0.3 1.3 0
0.4 1.3 0
0.5 1.3 0
0.6 1.3 0
0.7 1.3 0
0.8 1.3 0
0.9 1.3 0
1 1.3 0
1.1 1.3 0
1.2 1.3 0
1.3 1.3 0
1.4 1.3 0
1.5 1.3 0
1.6 1.3 0
1.7 1.3 0
1.8 1.3 0
1.9 1.3 0
-0.1 1.4 0
0 1.4 0
0.1 1.4 0
0.2 1.4 0
0.3 1.4 0
0.4 1.4 0
0.5 1.4 0
0.6 1.4 0
0.7 1.4 0
0.8 1.4 0
0.9 1.4 0
1 1.4 0
1.1 1.4 0
1.2 1.4 0
1.3 1.4 0
1.4 1.4 0
1.5 1.4 0
1.6 1.4 0
1.7 1.4 0
1.8 1.4 0
1.9 1.4 0
-0.1 1.5 0
0 1.5 0
0.1 1.5 0
0.2 1.5 0
0.3 1.5 0
0.4 1.5 0
0.5 1.5 0
0.6 1.5 0
0.7 1.5 0
0.8 1.5 0
0.9 1.5 0
1 1.5 0
1.1 1.5 0
1.2 1.5 0
1.3 1.5 0
1.4 1.5 0
1.5 1.5 0
1.6 1.5 0
1.7 1.5 0
1.8 1.5 0
1.9 1.5 0
-0.1 1.6 0
0 1.6 0
0.1 1.6 0
0.2 1.6 0
0.3 1.6 0
0.4 1.6 0
0.5 1.6 0
0.6 1.6 0
0.7 1.6 0
0.8 1.6 0
0.9 1.6 0
1 1.6 0
1.1 1.6 0
1.2 1.6 0
1.3 1.6 0
1.4 1.6 0
1.5 1.6 0
1.6 1.6 0
1.7 1.6 0
1.8 1.6 0
1.9 1.6 0
-0.1 1.7 0
0 1.7 0
0.1 1.7 0
0.2 1.7 0
0.3 1.7 0
0.4 1.7 0
0.5 1.7 0
0.6 1.7 0
0.7 1.7 0
0.8 1.7 0
0.9 1.7 0
1 1.7 0
1.1 1.7 0
1.2 1.7 0
1.3 1.7 0
1.4 1.7 0
1.5 1.7 0
1.6 1.7 0
1.7 1.7 0
1.8 1.7 0
1.9 1.7 0
-0.1 1.8 0
0 1.8 0
0.1 1.8 0
0.2 1.8 0
0.3 1.8 0
0.4 1.8 0
0.5 1.8 0
0.6 1.8 0
0.7 1.8 0
0.8 1.8 0
0.9 1.8 0
1 1.8 0
1.1 1.8 0
1.2 1.8 0
1.3 1.8 0
1.4 1.8 0
1.5 1.8 0
1.6 1.8 0
1.7 1.8 0
1.8 1.8 0
1.9 1.8 0
-0.1 1.9 0
0 1.9 0
0.1 1.9 0
0.2 1.9 0
0.3 1.9 0
0.4 1.9 0
0.5 1.9 0
0.6 1.9 0
0.7 1.9 0
0.8 1.9 0
0.9 1.9 0
1 1.9 0
1.1 1.9 0
1.2 1.9 0
1.3 1.9 0
1.4 1.9 0
1.5 1.9 0
1.6 1.9 0
1.7 1.9 0
1.8 1.9 0
[...]
CELL_DATA 4000
VECTORS velocity double 
-1.50897e-05 0.000316531 -0.000301441
-2.05774e-05 0.000364025 -0.000346241
-2.19731e-05 0.000371186 -0.000356271
-1.93012e-05 0.000373597 -0.000360984
-1.33656e-05 0.000374635 -0.00036326
-5.28257e-06 0.000375252 -0.00036438
3.93624e-06 0.000375761 -0.000364998
1.35302e-05 0.000376292 -0.000365353
2.28868e-05 0.000376848 -0.000365501
3.14715e-05 0.000377373 -0.000365411
3.88061e-05 0.000377846 -0.000364965
4.43164e-05 0.000378174 -0.000364034
4.73185e-05 0.000378184 -0.000362526
4.72286e-05 0.000377745 -0.000360299
4.35774e-05 0.000376699 -0.000357218
3.60635e-05 0.000374839 -0.000353265
2.47612e-05 0.000371907 -0.000348531
1.03923e-05 0.000367706 -0.000343214
-5.27277e-06 0.000360919 -0.000336514
-2.63638e-06 0.000319835 -0.000298612
-4.55563e-06 0.000867768 -0.000368575
-7.43769e-06 0.00100971 -0.000430547
-9.47596e-06 0.00103094 -0.000444204
-8.32943e-06 0.00103775 -0.000450334
-3.83058e-06 0.00104048 -0.000453258
3.23602e-06 0.0010419 -0.000454721
1.19874e-05 0.00104304 -0.00045552
2.16286e-05 0.00104422 -0.000455962
3.14334e-05 0.00104548 -0.000456146
4.0791e-05 0.00104673 -0.000456011
4.90322e-05 0.00104783 -0.000455436
5.53095e-05 0.00104851 -0.000454301
5.87272e-05 0.00104845 -0.000452445
5.84386e-05 0.00104729 -0.000449662
5.36388e-05 0.00104456 -0.000445817
4.36616e-05 0.00103964 -0.000440883
2.83908e-05 0.00103193 -0.000434837
8.54831e-06 0.00102066 -0.000427942
-1.2768e-05 0.00100067 -0.000418873
-6.384e-06 0.000872205 -0.000367434
1.24019e-05 0.00156777 -0.00042052
1.77883e-05 0.00185231 -0.000489571
1.79128e-05 0.00189448 -0.000504687
1.85037e-05 0.00190731 -0.000511741
2.13858e-05 0.00191229 -0.000515247
2.65158e-05 0.0019148 -0.000517061
3.32982e-05 0.00191675 -0.000518057
4.10045e-05 0.00191872 -0.000518625
4.89578e-05 0.00192081 -0.000518865
5.64839e-05 0.00192289 -0.00051872
6.27811e-05 0.00192467 -0.000518088
6.68795e-05 0.00192574 -0.000516801
6.77417e-05 0.0019256 -0.000514641
6.42509e-05 0.0019236 -0.000511424
5.52615e-05 0.00191885 -0.000507002
3.98575e-05 0.0019103 -0.000501294
1.77135e-05 0.00189692 -0.000494359
-1.02036e-05 0.00187682 -0.000486589
-3.78462e-05 0.00183723 -0.000476864
-1.89231e-05 0.00157402 -0.000419427
3.20164e-05 0.00238555 -0.000483803
4.80546e-05 0.00286223 -0.000559542
5.12732e-05 0.00293288 -0.000575612
5.13951e-05 0.00295322 -0.000583569
5.24342e-05 0.00296101 -0.000587739
5.52901e-05 0.00296495 -0.000589963
5.9712e-05 0.00296795 -0.00059123
6.50862e-05 0.00297091 -0.000591985
7.07476e-05 0.00297399 -0.000592329
7.59261e-05 0.00297701 -0.000592229
7.97026e-05 0.00297958 -0.000591555
8.09904e-05 0.00298117 -0.000590088
7.84827e-05 0.00298105 -0.000587618
7.07414e-05 0.00297822 -0.000583917
5.62584e-05 0.00297144 -0.000578797
3.38977e-05 0.00295916 -0.000572179
3.03152e-06 0.00293955 -0.000564373
-3.47774e-05 0.00290917 -0.00055595
-6.88302e-05 0.00284259 -0.000545961
-3.44151e-05 0.00239454 -0.000482111
5.30848e-05 0.00331549 -0.000558209
8.10959e-05 0.00403637 -0.000641564
8.77479e-05 0.0041441 -0.000658442
8.71978e-05 0.00417344 -0.000667308
8.60151e-05 0.00418451 -0.000672171
8.62045e-05 0.00419018 -0.000674857
8.79183e-05 0.00419446 -0.000676436
9.06909e-05 0.00419862 -0.000677391
9.3816e-05 0.00420286 -0.000677878
9.64519e-05 0.00420697 -0.000677847
9.75747e-05 0.00421051 -0.000677121
9.58637e-05 0.0042128 -0.000675481
8.97174e-05 0.00421286 -0.000672689
7.7371e-05 0.0042094 -0.000668426
5.68913e-05 0.00420073 -0.000662565
2.66687e-05 0.00418474 -0.000655021
-1.39892e-05 0.00415873 -0.000646184
-6.25602e-05 0.00411673 -0.000637093
-0.000102788 0.00401428 -0.000627085
-5.13942e-05 0.00332808 -0.000555828
7.5446e-05 0.00436337 -0.000642452
0.000116437 0.00538395 -0.000734608
0.000126686 0.00553851 -0.000752284
0.000125177 0.00557835 -0.00076207
0.000121368 0.00559306 -0.000767655
0.0001185 0.00560067 -0.000770819
0.000117194 0.00560643 -0.000772707
0.000117094 0.00561195 -0.000773885
0.000117495 0.0056175 -0.000774531
0.000117496 0.00562289 -0.000774573
0.000115891 0.00562761 -0.00077383
0.000111099 0.0056308 -0.000772053
0.000101227 0.0056313 -0.000768943
8.40567e-05 0.00562753 -0.000764109
5.71893e-05 0.00561728 -0.000757417
1.85034e-05 0.00559777 -0.000748881
-3.28071e-05 0.00556531 -0.000738967
-9.30281e-05 0.00551021 -0.00072914
-0.000139464 0.00536163 -0.000719175
-6.97319e-05 0.00438034 -0.000639488
9.92519e-05 0.00553915 -0.000735133
0.000154149 0.00691901 -0.00083734
0.000168103 0.00713131 -0.000855838
0.000165351 0.00718319 -0.000866545
0.000158518 0.00720175 -0.000872855
0.000152226 0.00721139 -0.000876475
0.000147582 0.00721875 -0.00087866
0.000144351 0.00722572 -0.00088008
0.000141876 0.00723273 -0.000880904
0.000139148 0.00723957 -0.000881059
0.000134749 0.00724565 -0.000880367
0.000126861 0.00725006 -0.000878495
0.000113253 0.00725144 -0.000875087
9.11348e-05 0.0072478 -0.000869748
5.75006e-05 0.00723642 -0.000862233
9.72216e-06 0.00721383 -0.000852573
-5.31725e-05 0.00717501 -0.000841453
-0.000126074 0.00710516 -0.000830848
-0.000179042 0.00689876 -0.000820963
-8.95209e-05 0.00556135 -0.000731771
0.000124659 0.0068532 -0.000834824
0.000194354 0.00865665 -0.000948284
0.000212089 0.00893875 -0.000967641
0.000207775 0.00900418 -0.000979254
0.000197532 0.00902656 -0.000986245
0.000187447 0.00903816 -0.000990289
0.00017913 0.00904708 -0.000992768
0.000172545 0.00905558 -0.000994419
0.000167043 0.00906415 -0.000995447
0.000161492 0.00907261 -0.000995791
0.000154342 0.00908036 -0.00099521
0.000143486 0.00908643 -0.000993315
0.000126169 0.00908924 -0.000989703
9.9029e-05 0.00908643 -0.000983898
5.83483e-05 0.00907474 -0.000975582
8.3005e-07 0.00904981 -0.000964749
-7.47067e-05 0.00900499 -0.000952312
-0.000161528 0.00891858 -0.000940843
-0.000221613 0.00864113 -0.000931116
-0.000110806 0.00688155 -0.000831404
0.000151732 0.00831464 -0.000940174
0.000237008 0.0106113 -0.00106603
0.000258447 0.0109763 -0.0010863
0.000252179 0.0110566 -0.00109877
0.000238094 0.0110824 -0.00110637
0.000223832 0.0110957 -0.00111077
0.000211547 0.011106 -0.0011135
0.000201407 0.011116 -0.00111537
0.000192775 0.0111262 -0.00111662
0.000184443 0.0111365 -0.00111722
0.00017471 0.0111462 -0.00111682
0.000161123 0.0111546 -0.00111503
0.000140375 0.0111597 -0.00111135
0.000108402 0.0111588 -0.00110519
6.05881e-05 0.0111481 -0.00109616
-7.22658e-06 0.0111221 -0.00108421
-9.65839e-05 0.011072 -0.00107042
-0.000198952 0.0109672 -0.00105796
-0.000267192 0.0106039 -0.00104831
-0.000133596 0.00835023 -0.000937208
0.000180372 0.00993128 -0.0010503
0.000281637 0.0127966 -0.00118978
0.000306379 0.0132582 -0.00121104
0.000297597 0.0133543 -0.00122425
0.000279179 0.0133829 -0.00123231
0.000260359 0.0133971 -0.00123695
0.000243873 0.0134085 -0.00123984
0.000230046 0.0134198 -0.0012419
0.000218279 0.0134316 -0.00124339
0.000207347 0.0134438 -0.00124429
0.000195441 0.013456 -0.00124418
0.000179717 0.0134673 -0.00124268
0.000156253 0.0134759 -0.00123918
0.000120086 0.0134786 -0.00123294
6.54824e-05 0.0134709 -0.00122341
-1.29289e-05 0.013446 -0.00121044
-0.000117316 0.0133922 -0.00119531
-0.000237276 0.0132671 -0.00118183
-0.000315435 0.0128016 -0.00117204
-0.000157718 0.00997539 -0.00104839
0.000210108 0.0117112 -0.00116573
0.000326976 0.015227 -0.00132041
0.000354049 0.0157995 -0.0013427
0.000341892 0.0159114 -0.00135641
0.000318562 0.0159412 -0.00136469
0.00029486 0.0159554 -0.00136939
0.000273996 0.0159672 -0.00137231
0.000256471 0.0159794 -0.00137447
0.000241785 0.0159926 -0.00137618
0.000228712 0.0160068 -0.00137746
0.000215371 0.0160218 -0.00137781
0.000198574 0.0160368 -0.00137681
0.00017377 0.0160503 -0.00137376
0.000134907 0.0160589 -0.0013678
7.47242e-05 0.0160573 -0.00135814
-1.39337e-05 0.0160371 -0.00134445
-0.000134336 0.0159825 -0.00132806
-0.000274278 0.0158364 -0.00131344
-0.000364994 0.0152507 -0.00130332
-0.000182497 0.0117651 -0.00116568
0.000239782 0.0136675 -0.00129011
0.000370403 0.0179229 -0.00146233
0.000397791 0.01862 -0.00148567
0.000380916 0.0187462 -0.00149954
0.000352017 0.0187745 -0.00150765
0.000323221 0.018787 -0.00151208
0.000298032 0.0187982 -0.00151482
0.000277028 0.0188106 -0.00151703
0.000259868 0.0188248 -0.00151891
0.000245469 0.0188407 -0.00152052
0.000231937 0.0188586 -0.00152146
0.000215919 0.0188782 -0.0015212
0.000192238 0.0188982 -0.00151897
0.000153574 0.0189157 -0.00151375
9.06114e-05 0.0189248 -0.0015045
-6.44075e-06 0.018915 -0.00149068
-0.000143079 0.0188653 -0.00147339
-0.000305815 0.0186992 -0.00145755
-0.00041319 0.0179741 -0.00144669
-0.000206595 0.0137319 -0.001293
0.000267043 0.015828 -0.00143347
0.000406755 0.0209212 -0.00162738
0.00043065 0.0217543 -0.00165179
0.00040707 0.0218903 -0.00166519
0.000371981 0.021913 -0.00167254
0.000338185 0.0219213 -0.00167629
0.000309065 0.0219306 -0.00167857
0.000285242 0.0219422 -0.00168058
0.000266499 0.0219564 -0.00168257
0.000252078 0.0219733 -0.00168451
0.000240355 0.0219937 -0.00168608
0.000228057 0.0220182 -0.00168679
0.000209552 0.0220465 -0.0016858
0.000176132 0.0220765 -0.00168199
0.000115844 0.0221024 -0.00167405
1.50037e-05 0.0221118 -0.00166098
-0.00013603 0.022077 -0.00164353
-0.000324341 0.0218962 -0.00162674
-0.000454809 0.0210127 -0.00161443
-0.000227404 0.0159024 -0.00144058
0.000287072 0.0182565 -0.00161937
0.000425988 0.0242969 -0.00184287
0.000439684 0.0252717 -0.00186831
0.000406624 0.0254086 -0.00188017
0.000365047 0.0254193 -0.00188586
0.000327065 0.0254202 -0.00188836
0.000295217 0.0254255 -0.00188989
0.000269969 0.025435 -0.00189139
0.000251313 0.0254477 -0.00189326
0.000239 0.0254642 -0.00189547
0.000232082 0.0254858 -0.0018977
0.000227792 0.0255146 -0.00189952
0.000220525 0.025552 -0.00190016
0.000200471 0.025598 -0.00189851
0.000152663 0.0256481 -0.00189299
5.78046e-05 0.0256895 -0.00188209
-0.000101287 0.0256864 -0.00186588
-0.00031625 0.0255051 -0.00184887
-0.000479317 0.0244479 -0.00183422
-0.000239659 0.0183379 -0.00163226
0.000289764 0.0210982 -0.00190125
0.000408264 0.0282104 -0.00217002
0.000400496 0.0293199 -0.00219623
0.000354516 0.0294407 -0.00220483
0.000307181 0.0294306 -0.00220771
0.000267413 0.0294201 -0.00220822
0.000235757 0.0294194 -0.00220855
0.000212055 0.0294247 -0.00220933
0.000196568 0.0294339 -0.00221085
0.000189906 0.0294476 -0.00221305
0.000192209 0.0294681 -0.00221574
0.00020194 0.0294989 -0.00221866
0.000214475 0.0295444 -0.00222121
0.000219979 0.029608 -0.00222237
0.000200846 0.0296897 -0.00222059
0.00013066 0.029779 -0.0022139
-2.03706e-05 0.0298345 -0.00220132
-0.000257268 0.029683 -0.00218584
-0.000465988 0.0284498 -0.00216781
-0.000232994 0.0211792 -0.00192177
0.000253029 0.0246848 -0.00240287
0.00031308 0.0330121 -0.00274935
0.000265719 0.0342234 -0.00277575
0.00020358 0.0343001 -0.00277857
0.000154108 0.0342577 -0.0027772
0.000118419 0.0342322 -0.00277505
9.33479e-05 0.0342234 -0.00277366
7.7553e-05 0.0342224 -0.00277336
7.15514e-05 0.0342253 -0.00277416
7.69881e-05 0.0342329 -0.002776
9.54946e-05 0.0342483 -0.00277884
0.000127629 0.0342769 -0.00278263
0.000171338 0.0343262 -0.00278707
0.000219008 0.0344049 -0.00279148
0.000252945 0.0345211 -0.00279462
0.000240167 0.034674 -0.00279448
0.000132695 0.0348248 -0.00278902
-0.000104468 0.03476 -0.00277869
-0.000372631 0.033383 -0.00275664
-0.000186316 0.0247516 -0.002433
0.000125325 0.0297922 -0.00342344
5.40528e-05 0.0394923 -0.00391621
-5.98519e-05 0.0407221 -0.00394235
-0.000137986 0.0407134 -0.00393627
-0.000178928 0.0406283 -0.00392893
-0.000196936 0.0405855 -0.00392353
-0.000201316 0.0405671 -0.00392014
-0.000195192 0.0405574 -0.00391843
-0.000178 0.0405511 -0.00391815
-0.000147333 0.0405488 -0.00391924
-0.000100049 0.0405543 -0.00392181
-3.28481e-05 0.0405744 -0.00392596
5.65943e-05 0.0406191 -0.00393181
0.000166647 0.0407034 -0.0039393
0.000285802 0.0408466 -0.00394784
0.000381622 0.0410674 -0.00395603
0.000387672 0.0413494 -0.0039616
0.00021528 0.0414619 -0.00396187
-0.00011002 0.040051 -0.00393623
-5.501e-05 0.0298246 -0.00346538
-0.000222248 0.0382599 -0.00567577
-0.000560725 0.0494344 -0.00644532
-0.000773316 0.0505136 -0.00647263
-0.000853421 0.0503758 -0.006456
-0.000857529 0.0502457 -0.00644197
-0.00082569 0.0501872 -0.0064329
-0.00077615 0.0501586 -0.00642724
-0.00071501 0.0501384 -0.00642388
-0.000642837 0.0501207 -0.00642229
-0.000557611 0.050106 -0.00642235
-0.000455624 0.0500982 -0.00642425
-0.00033126 0.050104 -0.00642828
-0.000176901 0.0501344 -0.00643483
1.61017e-05 0.0502073 -0.00644447
0.000252934 0.0503525 -0.00645755
0.000521373 0.0506139 -0.00647384
0.000759658 0.0510256 -0.00649196
0.000815522 0.0514092 -0.00650708
0.000518535 0.0502148 -0.0064789
0.000259268 0.0382429 -0.00573183
-0.00112491 0.0530559 -0.00942128
-0.00194368 0.0651321 -0.010441
-0.00224507 0.0658039 -0.010476
-0.00225164 0.0655432 -0.010454
-0.00213119 0.0653915 -0.0104345
-0.00196144 0.0653265 -0.0104218
-0.00177325 0.065291 -0.0104137
-0.0015784 0.0652631 -0.0104087
-0.00138111 0.0652376 -0.0104058
-0.00118184 0.0652151 -0.010405
-0.000977927 0.0651983 -0.0104063
-0.000762835 0.0651919 -0.0104102
-0.000524423 0.0652043 -0.0104171
-0.000242153 0.0652502 -0.0104279
0.000115697 0.0653587 -0.0104438
0.000588941 0.0655845 -0.0104656
0.0011947 0.0660129 -0.0104922
0.00181175 0.0666103 -0.0105155
0.00193985 0.0659853 -0.010482
0.000969926 0.0530182 -0.00949303
-0.00308382 0.0265279 0.0370417
-0.00422241 0.032566 0.0400538
-0.00421403 0.0329019 0.0400087
-0.00382182 0.0327716 0.0400064
-0.00334371 0.0326957 0.0400257
-0.00287383 0.0326633 0.0400412
-0.00243969 0.0326455 0.0400516
-0.00204811 0.0326315 0.0400585
-0.00169875 0.0326188 0.0400628
-0.00138771 0.0326075 0.0400648
-0.00110831 0.0325991 0.0400643
-0.000850585 0.032596 0.0400609
-0.000599337 0.0326021 0.0400536
-0.00032929 0.0326251 0.0400411
6.21359e-06 0.0326793 0.0400209
0.000499763 0.0327923 0.0399908
0.00133167 0.0330065 0.039954
0.00275156 0.0333052 0.039941
0.00440303 0.0329926 0.0399756
0.00220151 0.0265091 0.0369761
-2.68142e-05 0.000319439 -0.000724944
-4.15006e-05 0.000370617 -0.000856186
-4.74391e-05 0.000377469 -0.000883919
-4.61774e-05 0.00037954 -0.000896058
-3.97502e-05 0.000380424 -0.000901912
-2.99982e-05 0.000380978 -0.00090495
-1.82727e-05 0.000381499 -0.000906759
-5.52072e-06 0.000382098 -0.000907928
7.53169e-06 0.000382744 -0.000908602
2.03114e-05 0.000383402 -0.000908683
3.22841e-05 0.000384041 -0.000907902
4.27647e-05 0.000384533 -0.000905966
5.10154e-05 0.000384747 -0.000902544
5.63682e-05 0.00038458 -0.000897231
5.81361e-05 0.000383832 -0.000889745
5.57355e-05 0.000382259 -0.000879925
4.88835e-05 0.000379665 -0.000867866
3.78145e-05 0.000375659 -0.000853779
2.25639e-05 0.000368272 -0.000834365
1.12819e-05 0.000321212 -0.00072345
-1.96639e-05 0.000904036 -0.000925556
-3.38468e-05 0.00107019 -0.00111562
-4.17528e-05 0.00109397 -0.00115566
-4.2907e-05 0.00110062 -0.00117208
-3.85063e-05 0.00110302 -0.00117979
-3.00252e-05 0.00110427 -0.00118375
-1.86769e-05 0.00110538 -0.00118606
-5.45563e-06 0.00110665 -0.00118755
8.84137e-06 0.00110807 -0.00118841
2.35433e-05 0.00110957 -0.0011885
3.78719e-05 0.00111098 -0.00118755
5.0894e-05 0.00111202 -0.00118515
6.16318e-05 0.00111242 -0.00118083
6.90275e-05 0.0011118 -0.0011741
7.1952e-05 0.0011096 -0.00116455
6.94536e-05 0.00110518 -0.00115184
6.0763e-05 0.00109778 -0.00113587
4.57863e-05 0.00108606 -0.00111649
2.50329e-05 0.00106204 -0.00108735
1.25165e-05 0.000907559 -0.000926533
-1.29759e-06 0.00167778 -0.00108158
-6.18141e-06 0.00202904 -0.00130164
-1.10492e-05 0.00208101 -0.00134816
-1.20465e-05 0.00209471 -0.00136748
-8.76137e-06 0.0020994 -0.00137666
-1.93725e-06 0.00210168 -0.0013814
7.48695e-06 0.00210357 -0.00138418
1.86727e-05 0.00210565 -0.00138598
3.09285e-05 0.00210798 -0.00138701
4.35515e-05 0.00211042 -0.00138715
5.57244e-05 0.00211267 -0.00138606
6.64459e-05 0.00211433 -0.00138328
7.45346e-05 0.0021149 -0.00137825
7.86385e-05 0.00211365 -0.00137041
7.72746e-05 0.00210964 -0.00135922
6.90383e-05 0.00210165 -0.00134428
5.26925e-05 0.00208809 -0.00132547
2.78327e-05 0.00206573 -0.00130273
-1.83314e-06 0.00201457 -0.00126884
-9.1657e-07 0.00168441 -0.00108263
2.13098e-05 0.00261466 -0.00126791
2.89738e-05 0.00322799 -0.00151841
2.84324e-05 0.0033213 -0.00157069
2.78803e-05 0.00334464 -0.00159295
2.99626e-05 0.00335244 -0.00160379
3.48224e-05 0.00335617 -0.0016095
4.19001e-05 0.00335912 -0.0016129
5.05556e-05 0.00336226 -0.00161512
6.01502e-05 0.0033657 -0.00161641
6.9974e-05 0.00336922 -0.00161668
7.91754e-05 0.00337247 -0.00161549
8.66228e-05 0.00337489 -0.00161229
9.0894e-05 0.0033757 -0.00160648
9.03029e-05 0.00337387 -0.00159736
8.29049e-05 0.00336793 -0.00158432
6.67066e-05 0.00335603 -0.00156689
3.99071e-05 0.0033355 -0.0015451
2.24195e-06 0.00329995 -0.00151911
-3.73406e-05 0.00320868 -0.00148116
-1.86703e-05 0.00262535 -0.00126822
4.59789e-05 0.00371347 -0.00148457
6.77042e-05 0.00467373 -0.00176987
7.17098e-05 0.00482395 -0.00182818
7.12177e-05 0.00485971 -0.00185353
7.15021e-05 0.00487137 -0.00186618
7.38222e-05 0.00487695 -0.00187298
7.80838e-05 0.0048813 -0.00187708
8.38124e-05 0.00488575 -0.00187977
9.04289e-05 0.00489049 -0.00188142
9.72468e-05 0.0048953 -0.00188184
0.000103325 0.00489974 -0.00188058
0.00010733 0.00490308 -0.00187702
0.000107606 0.0049043 -0.0018704
0.000101991 0.00490205 -0.00185986
8.80372e-05 0.00489432 -0.0018448
6.30801e-05 0.00487845 -0.00182471
2.4642e-05 0.00485046 -0.00179965
-2.71361e-05 0.00479915 -0.00177017
-7.67825e-05 0.00465195 -0.00172804
-3.83913e-05 0.00372897 -0.00148416
7.22399e-05 0.00498469 -0.00172856
0.000109011 0.00638518 -0.00205364
0.000117512 0.00661047 -0.00211856
0.000116525 0.00666164 -0.00214721
0.000114361 0.00667781 -0.00216176
0.000113564 0.00668558 -0.00216966
0.000114522 0.00669158 -0.00217447
0.000116945 0.00669754 -0.00217771
0.000120352 0.00670377 -0.00217977
0.000124041 0.00671006 -0.00218044
0.000126943 0.00671586 -0.0021792
0.000127523 0.00672033 -0.00217533
0.000123841 0.00672223 -0.00216791
0.000113197 0.00671983 -0.00215603
9.24608e-05 0.00671058 -0.00213884
5.82656e-05 0.00669098 -0.00211578
7.45148e-06 0.00665532 -0.00208713
-5.94225e-05 0.00658535 -0.00205389
-0.000119418 0.0063635 -0.00200714
-5.97088e-05 0.00500563 -0.00172773
0.000100116 0.00644333 -0.00199664
0.00015284 0.00838631 -0.00236656
0.000165745 0.00870737 -0.00243878
0.000163726 0.00877722 -0.00247088
0.00015851 0.00879839 -0.00248734
0.000154033 0.00880853 -0.00249633
0.000151189 0.00881632 -0.00250185
0.000149935 0.00882394 -0.00250568
0.000149897 0.00883181 -0.0025082
0.000150315 0.00883972 -0.00250924
0.00015002 0.00884707 -0.00250818
0.000147256 0.00885298 -0.00250417
0.000139684 0.00885598 -0.00249607
0.000124057 0.00885388 -0.00248285
9.64708e-05 0.0088436 -0.00246349
5.26522e-05 0.00882073 -0.00243729
-1.13666e-05 0.00877737 -0.00240468
-9.44135e-05 0.00868552 -0.00236725
-0.000165222 0.00836736 -0.00231534
-8.26109e-05 0.00647031 -0.00199596
0.000129762 0.00810513 -0.00228529
0.000199317 0.0107024 -0.00270504
0.000216518 0.0111424 -0.00278527
0.000212947 0.0112343 -0.00282095
0.000204073 0.0112608 -0.00283925
0.000195335 0.0112733 -0.00284924
0.000188205 0.0112829 -0.00285545
0.000182909 0.0112922 -0.00285986
0.000179148 0.0113018 -0.00286295
0.000176164 0.0113115 -0.00286453
0.000172716 0.0113207 -0.00286378
0.000166771 0.0113285 -0.00285982
0.000155481 0.0113331 -0.00285135
0.000134977 0.0113321 -0.002837
0.000100507 0.0113216 -0.00281552
4.66932e-05 0.0112962 -0.00278609
-3.14029e-05 0.0112454 -0.00274924
-0.000131957 0.0111281 -0.00270711
-0.000214294 0.0106892 -0.00264932
-0.000107147 0.00813876 -0.00228558
0.000161279 0.00998458 -0.00259086
0.000248399 0.0133579 -0.00306545
0.000269642 0.0139424 -0.00315445
0.000263921 0.0140599 -0.00319369
0.000250741 0.0140915 -0.00321367
0.000237144 0.0141061 -0.00322451
0.000225245 0.0141174 -0.0032313
0.000215538 0.0141284 -0.00323626
0.000207813 0.0141399 -0.00323998
0.000201388 0.0141515 -0.00324224
0.000194905 0.0141629 -0.00324213
0.000186039 0.0141731 -0.00323858
0.000171431 0.0141801 -0.00323011
0.000146434 0.0141812 -0.00321505