# vtk DataFile Version 2.0 
Visualization 
ASCII 
DATASET STRUCTURED_GRID 
DIMENSIONS 21 21 11
POINTS 4851 float
-0.1 -0.1 0.9
0 -0.1 0.9
0.1 -0.1 0.9
0.2 -0.1 0.9
0.3 -0.1 0.9
0.4 -0.1 0.9
0.5 -0.1 0.9
0.6 -0.1 0.9
0.7 -0.1 0.9
0.8 -0.1 0.9
0.9 -0.1 0.9
1 -0.1 0.9
1.1 -0.1 0.9
1.2 -0.1 0.9
1.3 -0.1 0.9
1.4 -0.1 0.9
1.5 -0.1 0.9
1.6 -0.1 0.9
1.7 -0.1 0.9
1.8 -0.1 0.9
1.9 -0.1 0.9
-0.1 0 0.9
0 0 0.9
0.1 0 0.9
0.2 0 0.9
0.3 0 0.9
0.4 0 0.9
0.5 0 0.9
0.6 0 0.9
0.7 0 0.9
0.8 0 0.9
0.9 0 0.9
1 0 0.9
1.1 0 0.9
1.2 0 0.9
1.3 0 0.9
1.4 0 0.9
1.5 0 0.9
1.6 0 0.9
1.7 0 0.9
1.8 0 0.9
1.9 0 0.9
-0.1 0.1 0.9
0 0.1 0.9
0.1 0.1 0.9
0.2 0.1 0.9
0.3 0.1 0.9
0.4 0.1 0.9
0.5 0.1 0.9
0.6 0.1 0.9
0.7 0.1 0.9
0.8 0.1 0.9
0.9 0.1 0.9
1 0.1 0.9
1.1 0.1 0.9
1.2 0.1 0.9
1.3 0.1 0.9
1.4 0.1 0.9
1.5 0.1 0.9
1.6 0.1 0.9
1.7 0.1 0.9
1.8 0.1 0.9
1.9 0.1 0.9
-0.1 0.2 0.9
0 0.2 0.9
0.1 0.2 0.9
0.2 0.2 0.9
0.3 0.2 0.9
0.4 0.2 0.9
0.5 0.2 0.9
0.6 0.2 0.9
0.7 0.2 0.9
0.8 0.2 0.9
0.9 0.2 0.9
1 0.2 0.9
1.1 0.2 0.9
1.2 0.2 0.9
1.3 0.2 0.9
1.4 0.2 0.9
1.5 0.2 0.9
1.6 0.2 0.9
1.7 0.2 0.9
1.8 0.2 0.9
1.9 0.2 0.9
-0.1 0.3 0.9
0 0.3 0.9
0.1 0.3 0.9
0.2 0.3 0.9
0.3 0.3 0.9
0.4 0.3 0.9
0.5 0.3 0.9
0.6 0.3 0.9
0.7 0.3 0.9
0.8 0.3 0.9
0.9 0.3 0.9
1 0.3 0.9
1.1 0.3 0.9
1.2 0.3 0.9
1.3 0.3 0.9
1.4 0.3 0.9
1.5 0.3 0.9
1.6 0.3 0.9
1.7 0.3 0.9
1.8 0.3 0.9
1.9 0.3 0.9
-0.1 0.4 0.9
0 0.4 0.9
0.1 0.4 0.9
0.2 0.4 0.9
0.3 0.4 0.9
0.4 0.4 0.9
0.5 0.4 0.9
0.6 0.4 0.9
0.7 0.4 0.9
0.8 0.4 0.9
0.9 0.4 0.9
1 0.4 0.9
1.1 0.4 0.9
1.2 0.4 0.9
1.3 0.4 0.9
1.4 0.4 0.9
1.5 0.4 0.9
1.6 0.4 0.9
1.7 0.4 0.9
1.8 0.4 0.9
1.9 0.4 0.9
-0.1 0.5 0.9
0 0.5 0.9
0.1 0.5 0.9
0.2 0.5 0.9
0.3 0.5 0.9
0.4 0.5 0.9
0.5 0.5 0.9
0.6 0.5 0.9
0.7 0.5 0.9
0.8 0.5 0.9
0.9 0.5 0.9
1 0.5 0.9
1.1 0.5 0.9
1.2 0.5 0.9
1.3 0.5 0.9
1.4 0.5 0.9
1.5 0.5 0.9
1.6 0.5 0.9
1.7 0.5 0.9
1.8 0.5 0.9
1.9 0.5 0.9
-0.1 0.6 0.9
0 0.6 0.9
0.1 0.6 0.9
0.2 0.6 0.9
0.3 0.6 0.9
0.4 0.6 0.9
0.5 0.6 0.9
0.6 0.6 0.9
0.7 0.6 0.9
0.8 0.6 0.9
0.9 0.6 0.9
1 0.6 0.9
1.1 0.6 0.9
1.2 0.6 0.9
1.3 0.6 0.9
1.4 0.6 0.9
1.5 0.6 0.9
1.6 0.6 0.9
1.7 0.6 0.9
1.8 0.6 0.9
1.9 0.6 0.9
-0.1 0.7 0.9
0 0.7 0.9
0.1 0.7 0.9
0.2 0.7 0.9
0.3 0.7 0.9
0.4 0.7 0.9
0.5 0.7 0.9
0.6 0.7 0.9
0.7 0.7 0.9
0.8 0.7 0.9
0.9 0.7 0.9
1 0.7 0.9
1.1 0.7 0.9
1.2 0.7 0.9
1.3 0.7 0.9
1.4 0.7 0.9
1.5 0.7 0.9
1.6 0.7 0.9
1.7 0.7 0.9
1.8 0.7 0.9
1.9 0.7 0.9
-0.1 0.8 0.9
0 0.8 0.9
0.1 0.8 0.9
0.2 0.8 0.9
0.3 0.8 0.9
0.4 0.8 0.9
0.5 0.8 0.9
0.6 0.8 0.9
0.7 0.8 0.9
0.8 0.8 0.9
0.9 0.8 0.9
1 0.8 0.9
1.1 0.8 0.9
1.2 0.8 0.9
1.3 0.8 0.9
1.4 0.8 0.9
1.5 0.8 0.9
1.6 0.8 0.9
1.7 0.8 0.9
1.8 0.8 0.9
1.9 0.8 0.9
-0.1 0.9 0.9
0 0.9 0.9
0.1 0.9 0.9
0.2 0.9 0.9
0.3 0.9 0.9
0.4 0.9 0.9
0.5 0.9 0.9
0.6 0.9 0.9
0.7 0.9 0.9
0.8 0.9 0.9
0.9 0.9 0.9
1 0.9 0.9
1.1 0.9 0.9
1.2 0.9 0.9
1.3 0.9 0.9
1.4 0.9 0.9
1.5 0.9 0.9
1.6 0.9 0.9
1.7 0.9 0.9
1.8 0.9 0.9
1.9 0.9 0.9
-0.1 1 0.9
0 1 0.9
0.1 1 0.9
0.2 1 0.9
0.3 1 0.9
0.4 1 0.9
0.5 1 0.9
0.6 1 0.9
0.7 1 0.9
0.8 1 0.9
0.9 1 0.9
1 1 0.9
1.1 1 0.9
1.2 1 0.9
1.3 1 0.9
1.4 1 0.9
1.5 1 0.9
1.6 1 0.9
1.7 1 0.9
1.8 1 0.9
1.9 1 0.9
-0.1 1.1 0.9
0 1.1 0.9
0.1 1.1 0.9
0.2 1.1 0.9
0.3 1.1 0.9
0.4 1.1 0.9
0.5 1.1 0.9
0.6 1.1 0.9
0.7 1.1 0.9
0.8 1.1 0.9
0.9 1.1 0.9
1 1.1 0.9
1.1 1.1 0.9
1.2 1.1 0.9
1.3 1.1 0.9
1.4 1.1 0.9
1.5 1.1 0.9
1.6 1.1 0.9
1.7 1.1 0.9
1.8 1.1 0.9
1.9 1.1 0.9
-0.1 1.2 0.9
0 1.2 0.9
0.1 1.2 0.9
0.2 1.2 0.9
0.3 1.2 0.9
0.4 1.2 0.9
0.5 1.2 0.9
0.6 1.2 0.9
0.7 1.2 0.9
0.8 1.2 0.9
0.9 1.2 0.9
1 1.2 0.9
1.1 1.2 0.9
1.2 1.2 0.9
1.3 1.2 0.9
1.4 1.2 0.9
1.5 1.2 0.9
1.6 1.2 0.9
1.7 1.2 0.9
1.8 1.2 0.9
1.9 1.2 0.9
-0.1 1.3 0.9
0 1.3 0.9
0.1 1.3 0.9
0.2 1.3 0.9
0.3 1.3 0.9
0.4 1.3 0.9
0.5 1.3 0.9
0.6 1.3 0.9
0.7 1.3 0.9
0.8 1.3 0.9
0.9 1.3 0.9
1 1.3 0.9
1.1 1.3 0.9
1.2 1.3 0.9
1.3 1.3 0.9
1.4 1.3 0.9
1.5 1.3 0.9
1.6 1.3 0.9
1.7 1.3 0.9
1.8 1.3 0.9
1.9 1.3 0.9
-0.1 1.4 0.9
0 1.4 0.9
0.1 1.4 0.9
0.2 1.4 0.9
0.3 1.4 0.9
0.4 1.4 0.9
0.5 1.4 0.9
0.6 1.4 0.9
0.7 1.4 0.9
0.8 1.4 0.9
0.9 1.4 0.9
1 1.4 0.9
1.1 1.4 0.9
1.2 1.4 0.9
1.3 1.4 0.9
1.4 1.4 0.9
1.5 1.4 0.9
1.6 1.4 0.9
1.7 1.4 0.9
1.8 1.4 0.9
1.9 1.4 0.9
-0.1 1.5 0.9
0 1.5 0.9
0.1 1.5 0.9
0.2 1.5 0.9
0.3 1.5 0.9
0.4 1.5 0.9
0.5 1.5 0.9
0.6 1.5 0.9
0.7 1.5 0.9
0.8 1.5 0.9
0.9 1.5 0.9
1 1.5 0.9
1.1 1.5 0.9
1.2 1.5 0.9
1.3 1.5 0.9
1.4 1.5 0.9
1.5 1.5 0.9
1.6 1.5 0.9
1.7 1.5 0.9
1.8 1.5 0.9
1.9 1.5 0.9
-0.1 1.6 0.9
0 1.6 0.9
0.1 1.6 0.9
0.2 1.6 0.9
0.3 1.6 0.9
0.4 1.6 0.9
0.5 1.6 0.9
0.6 1.6 0.9
0.7 1.6 0.9
0.8 1.6 0.9
0.9 1.6 0.9
1 1.6 0.9
1.1 1.6 0.9
1.2 1.6 0.9
1.3 1.6 0.9
1.4 1.6 0.9
1.5 1.6 0.9
1.6 1.6 0.9
1.7 1.6 0.9
1.8 1.6 0.9
1.9 1.6 0.9
-0.1 1.7 0.9
0 1.7 0.9
0.1 1.7 0.9
0.2 1.7 0.9
0.3 1.7 0.9
0.4 1.7 0.9
0.5 1.7 0.9
0.6 1.7 0.9
0.7 1.7 0.9
0.8 1.7 0.9
0.9 1.7 0.9
1 1.7 0.9
1.1 1.7 0.9
1.2 1.7 0.9
1.3 1.7 0.9
1.4 1.7 0.9
1.5 1.7 0.9
1.6 1.7 0.9
1.7 1.7 0.9
1.8 1.7 0.9
1.9 1.7 0.9
-0.1 1.8 0.9
0 1.8 0.9
0.1 1.8 0.9
0.2 1.8 0.9
0.3 1.8 0.9
0.4 1.8 0.9
0.5 1.8 0.9
0.6 1.8 0.9
0.7 1.8 0.9
0.8 1.8 0.9
0.9 1.8 0.9
1 1.8 0.9
1.1 1.8 0.9
1.2 1.8 0.9
1.3 1.8 0.9
1.4 1.8 0.9
1.5 1.8 0.9
1.6 1.8 0.9
1.7 1.8 0.9
1.8 1.8 0.9
1.9 1.8 0.9
-0.1 1.9 0.9
0 1.9 0.9
0.1 1.9 0.9
0.2 1.9 0.9
0.3 1.9 0.9
0.4 1.9 0.9
0.5 1.9 0.9
0.6 1.9 0.9
0.7 1.9 0.9
0.8 1.9 0.9
0.9 1.9 0.9
1 1.9 0.9
1.1 1.9 0.9
1.2 1.9 0.9
1.3 1.9 0.9
1.4 1.9 0.9
1.5 1.9 0.9
1.6 1.9 0.9
1.7 1.9 0.9
1.8 1.9 0.9
1.9 1.9 0.9
-0.1 -0.1 1
0 -0.1 1
0.1 -0.1 1
0.2 -0.1 1
0.3 -0.1 1
0.4 -0.1 1
0.5 -0.1 1
0.6 -0.1 1
0.7 -0.1 1
0.8 -0.1 1
0.9 -0.1 1
1 -0.1 1
1.1 -0.1 1
1.2 -0.1 1
1.3 -0.1 1
1.4 -0.1 1
1.5 -0.1 1
1.6 -0.1 1
1.7 -0.1 1
1.8 -0.1 1
1.9 -0.1 1
-0.1 0 1
0 0 1
0.1 0 1
0.2 0 1
0.3 0 1
0.4 0 1
0.5 0 1
0.6 0 1
0.7 0 1
0.8 0 1
0.9 0 1
1 0 1
1.1 0 1
1.2 0 1
1.3 0 1
1.4 0 1
1.5 0 1
1.6 0 1
1.7 0 1
1.8 0 1
1.9 0 1
-0.1 0.1 1
0 0.1 1
0.1 0.1 1
0.2 0.1 1
0.3 0.1 1
0.4 0.1 1
0.5 0.1 1
0.6 0.1 1
0.7 0.1 1
0.8 0.1 1
0.9 0.1 1
1 0.1 1
1.1 0.1 1
1.2 0.1 1
1.3 0.1 1
1.4 0.1 1
1.5 0.1 1
1.6 0.1 1
1.7 0.1 1
1.8 0.1 1
1.9 0.1 1
-0.1 0.2 1
0 0.2 1
0.1 0.2 1
0.2 0.2 1
0.3 0.2 1
0.4 0.2 1
0.5 0.2 1
0.6 0.2 1
0.7 0.2 1
0.8 0.2 1
0.9 0.2 1
1 0.2 1
1.1 0.2 1
1.2 0.2 1
1.3 0.2 1
1.4 0.2 1
1.5 0.2 1
1.6 0.2 1
1.7 0.2 1
1.8 0.2 1
1.9 0.2 1
-0.1 0.3 1
0 0.3 1
0.1 0.3 1
0.2 0.3 1
0.3 0.3 1
0.4 0.3 1
0.5 0.3 1
0.6 0.3 1
0.7 0.3 1
0.8 0.3 1
0.9 0.3 1
1 0.3 1
1.1 0.3 1
1.2 0.3 1
1.3 0.3 1
1.4 0.3 1
1.5 0.3 1
1.6 0.3 1
1.7 0.3 1
1.8 0.3 1
1.9 0.3 1
-0.1 0.4 1
0 0.4 1
0.1 0.4 1
0.2 0.4 1
0.3 0.4 1
0.4 0.4 1
0.5 0.4 1
0.6 0.4 1
0.7 0.4 1
0.8 0.4 1
0.9 0.4 1
1 0.4 1
1.1 0.4 1
1.2 0.4 1
1.3 0.4 1
1.4 0.4 1
1.5 0.4 1
1.6 0.4 1
1.7 0.4 1
1.8 0.4 1
1.9 0.4 1
-0.1 0.5 1
0 0.5 1
0.1 0.5 1
0.2 0.5 1
0.3 0.5 1
0.4 0.5 1
0.5 0.5 1
0.6 0.5 1
0.7 0.5 1
0.8 0.5 1
0.9 0.5 1
1 0.5 1
1.1 0.5 1
1.2 0.5 1
1.3 0.5 1
1.4 0.5 1
1.5 0.5 1
1.6 0.5 1
1.7 0.5 1
1.8 0.5 1
1.9 0.5 1
-0.1 0.6 1
0 0.6 1
0.1 0.6 1
0.2 0.6 1
0.3 0.6 1
0.4 0.6 1
0.5 0.6 1
0.6 0.6 1
0.7 0.6 1
0.8 0.6 1
0.9 0.6 1
1 0.6 1
1.1 0.6 1
1.2 0.6 1
1.3 0.6 1
1.4 0.6 1
1.5 0.6 1
1.6 0.6 1
1.7 0.6 1
1.8 0.6 1
1.9 0.6 1
-0.1 0.7 1
0 0.7 1
0.1 0.7 1
0.2 0.7 1
0.3 0.7 1
0.4 0.7 1
0.5 0.7 1
0.6 0.7 1
0.7 0.7 1
0.8 0.7 1
0.9 0.7 1
1 0.7 1
1.1 0.7 1
1.2 0.7 1
1.3 0.7 1
1.4 0.7 1
1.5 0.7 1
1.6 0.7 1
1.7 0.7 1
1.8 0.7 1
1.9 0.7 1
-0.1 0.8 1
0 0.8 1
0.1 0.8 1
0.2 0.8 1
0.3 0.8 1
0.4 0.8 1
0.5 0.8 1
0.6 0.8 1
0.7 0.8 1
0.8 0.8 1
0.9 0.8 1
1 0.8 1
1.1 0.8 1
1.2 0.8 1
1.3 0.8 1
1.4 0.8 1
1.5 0.8 1
1.6 0.8 1
1.7 0.8 1
1.8 0.8 1
1.9 0.8 1
-0.1 0.9 1
0 0.9 1
0.1 0.9 1
0.2 0.9 1
0.3 0.9 1
0.4 0.9 1
0.5 0.9 1
0.6 0.9 1
0.7 0.9 1
0.8 0.9 1
0.9 0.9 1
1 0.9 1
1.1 0.9 1
1.2 0.9 1
1.3 0.9 1
1.4 0.9 1
1.5 0.9 1
1.6 0.9 1
1.7 0.9 1
1.8 0.9 1
1.9 0.9 1
-0.1 1 1
0 1 1
0.1 1 1
0.2 1 1
0.3 1 1
0.4 1 1
0.5 1 1
0.6 1 1
0.7 1 1
0.8 1 1
0.9 1 1
1 1 1
1.1 1 1
1.2 1 1
1.3 1 1
1.4 1 1
1.5 1 1
1.6 1 1
1.7 1 1
1.8 1 1
1.9 1 1
-0.1 1.1 1
0 1.1 1
0.1 1.1 1
0.2 1.1 1
0.3 1.1 1
0.4 1.1 1
0.5 1.1 1
0.6 1.1 1
0.7 1.1 1
0.8 1.1 1
0.9 1.1 1
1 1.1 1
1.1 1.1 1
1.2 1.1 1
1.3 1.1 1
1.4 1.1 1
1.5 1.1 1
1.6 1.1 1
1.7 1.1 1
1.8 1.1 1
1.9 1.1 1
-0.1 1.2 1
0 1.2 1
0.1 1.2 1
0.2 1.2 1
0.3 1.2 1
0.4 1.2 1
0.5 1.2 1
0.6 1.2 1
0.7 1.2 1
0.8 1.2 1
0.9 1.2 1
1 1.2 1
1.1 1.2 1
1.2 1.2 1
1.3 1.2 1
1.4 1.2 1
1.5 1.2 1
1.6 1.2 1
1.7 1.2 1
1.8 1.2 1
1.9 1.2 1
-0.1 1.3 1
0 1.3 1
0.1 1.3 1
0.2 1.3 1
0.3 1.3 1
0.4 1.3 1
0.5 1.3 1
0.6 1.3 1
0.7 1.3 1
0.8 1.3 1
0.9 1.3 1
1 1.3 1
1.1 1.3 1
1.2 1.3 1
1.3 1.3 1
1.4 1.3 1
1.5 1.3 1
1.6 1.3 1
1.7 1.3 1
1.8 1.3 1
1.9 1.3 1
-0.1 1.4 1
0 1.4 1
0.1 1.4 1
0.2 1.4 1
0.3 1.4 1
0.4 1.4 1
0.5 1.4 1
0.6 1.4 1
0.7 1.4 1
0.8 1.4 1
0.9 1.4 1
1 1.4 1
1.1 1.4 1
1.2 1.4 1
1.3 1.4 1
1.4 1.4 1
1.5 1.4 1
1.6 1.4 1
1.7 1.4 1
1.8 1.4 1
1.9 1.4 1
-0.1 1.5 1
0 1.5 1
0.1 1.5 1
0.2 1.5 1
0.3 1.5 1
0.4 1.5 1
0.5 1.5 1
0.6 1.5 1
0.7 1.5 1
0.8 1.5 1
0.9 1.5 1
1 1.5 1
1.1 1.5 1
1.2 1.5 1
1.3 1.5 1
1.4 1.5 1
1.5 1.5 1
1.6 1.5 1
1.7 1.5 1
1.8 1.5 1
1.9 1.5 1
-0.1 1.6 1
0 1.6 1
0.1 1.6 1
0.2 1.6 1
0.3 1.6 1
0.4 1.6 1
0.5 1.6 1
0.6 1.6 1
0.7 1.6 1
0.8 1.6 1
0.9 1.6 1
1 1.6 1
1.1 1.6 1
1.2 1.6 1
1.3 1.6 1
1.4 1.6 1
1.5 1.6 1
1.6 1.6 1
1.7 1.6 1
1.8 1.6 1
1.9 1.6 1
-0.1 1.7 1
0 1.7 1
0.1 1.7 1
0.2 1.7 1
0.3 1.7 1
0.4 1.7 1
0.5 1.7 1
0.6 1.7 1
0.7 1.7 1
0.8 1.7 1
0.9 1.7 1
1 1.7 1
1.1 1.7 1
1.2 1.7 1
1.3 1.7 1
1.4 1.7 1
1.5 1.7 1
1.6 1.7 1
1.7 1.7 1
1.8 1.7 1
1.9 1.7 1
-0.1 1.8 1
0 1.8 1
0.1 1.8 1
0.2 1.8 1
0.3 1.8 1
0.4 1.8 1
0.5 1.8 1
0.6 1.8 1
0.7 1.8 1
0.8 1.8 1
0.9 1.8 1
1 1.8 1
1.1 1.8 1
1.2 1.8 1
1.3 1.8 1
1.4 1.8 1
1.5 1.8 1
1.6 1.8 1
1.7 1.8 1
1.8 1.8 1
1.9 1.8 1
-0.1 1.9 1
0 1.9 1
0.1 1.9 1
0.2 1.9 1
0.3 1.9 1
0.4 1.9 1
0.5 1.9 1
0.6 1.9 1
0.7 1.9 1
0.8 1.9 1
0.9 1.9 1
1 1.9 1
1.1 1.9 1
1.2 1.9 1
1.3 1.9 1
1.4 1.9 1
1.5 1.9 1
1.6 1.9 1
1.7 1.9 1
1.8 1.9 1
1.9 1.9 1
-0.1 -0.1 1.1
0 -0.1 1.1
0.1 -0.1 1.1
0.2 -0.1 1.1
0.3 -0.1 1.1
0.4 -0.1 1.1
0.5 -0.1 1.1
0.6 -0.1 1.1
0.7 -0.1 1.1
0.8 -0.1 1.1
0.9 -0.1 1.1
1 -0.1 1.1
1.1 -0.1 1.1
1.2 -0.1 1.1
1.3 -0.1 1.1
1.4 -0.1 1.1
1.5 -0.1 1.1
1.6 -0.1 1.1
1.7 -0.1 1.1
1.8 -0.1 1.1
1.9 -0.1 1.1
-0.1 0 1.1
0 0 1.1
0.1 0 1.1
0.2 0 1.1
0.3 0 1.1
0.4 0 1.1
0.5 0 1.1
0.6 0 1.1
0.7 0 1.1
0.8 0 1.1
0.9 0 1.1
1 0 1.1
1.1 0 1.1
1.2 0 1.1
1.3 0 1.1
1.4 0 1.1
1.5 0 1.1
[...]
CELL_DATA 4000
VECTORS velocity double 
-4.17499e-05 -8.88733e-05 -0.00416286
-4.19318e-05 -9.28168e-05 -0.00451995
-3.36403e-05 -9.35133e-05 -0.0045185
-2.51037e-05 -9.38959e-05 -0.00451753
-1.7936e-05 -9.41373e-05 -0.00451682
-1.21208e-05 -9.42981e-05 -0.0045163
-7.34971e-06 -9.44039e-05 -0.00451592
-3.31209e-06 -9.44698e-05 -0.00451566
2.39876e-07 -9.45092e-05 -0.0045155
3.49415e-06 -9.45258e-05 -0.00451541
6.59533e-06 -9.4528e-05 -0.00451541
9.67398e-06 -9.4511e-05 -0.00451549
1.28687e-05 -9.44664e-05 -0.00451567
1.63243e-05 -9.4395e-05 -0.00451595
2.02611e-05 -9.42985e-05 -0.00451633
2.51294e-05 -9.41574e-05 -0.00451684
3.19778e-05 -9.39471e-05 -0.00451749
4.39283e-05 -9.36391e-05 -0.00451831
7.21154e-05 -9.31197e-05 -0.00451934
3.60577e-05 -8.99352e-05 -0.00416048
-4.34932e-05 -0.000163281 -0.00465362
-4.34982e-05 -0.000172462 -0.00502013
-3.48029e-05 -0.000174014 -0.00501888
-2.59227e-05 -0.000174922 -0.00501799
-1.85028e-05 -0.000175504 -0.00501732
-1.25064e-05 -0.000175892 -0.00501682
-7.60507e-06 -0.000176151 -0.00501644
-3.47624e-06 -0.00017632 -0.00501618
1.43141e-07 -0.000176425 -0.005016
3.44486e-06 -0.000176473 -0.00501591
6.58869e-06 -0.000176476 -0.00501591
9.71665e-06 -0.00017643 -0.00501599
1.29632e-05 -0.000176325 -0.00501616
1.64706e-05 -0.000176158 -0.00501643
2.04789e-05 -0.000175922 -0.00501679
2.54526e-05 -0.000175569 -0.00501725
3.24512e-05 -0.000175039 -0.00501784
4.46883e-05 -0.000174223 -0.00501858
7.34828e-05 -0.000172878 -0.00501943
3.67414e-05 -0.000164247 -0.00465146
-4.59021e-05 -0.000243961 -0.00491779
-4.5906e-05 -0.000259676 -0.00530231
-3.67211e-05 -0.000262172 -0.00530125
-2.73422e-05 -0.000263656 -0.00530047
-1.95206e-05 -0.000264617 -0.00529986
-1.32228e-05 -0.000265257 -0.00529939
-8.09978e-06 -0.000265688 -0.00529903
-3.80953e-06 -0.000265973 -0.00529877
-6.42707e-08 -0.000266149 -0.00529861
3.33923e-06 -0.000266229 -0.00529852
6.57329e-06 -0.000266226 -0.00529852
9.79286e-06 -0.000266151 -0.0052986
1.31341e-05 -0.000265991 -0.00529877
1.67452e-05 -0.000265724 -0.00529902
2.08993e-05 -0.000265311 -0.00529936
2.60876e-05 -0.000264699 -0.00529979
3.34285e-05 -0.000263794 -0.00530032
4.62601e-05 -0.000262403 -0.00530094
7.64859e-05 -0.000260058 -0.00530161
3.82429e-05 -0.000244634 -0.00491565
-4.93406e-05 -0.000332999 -0.00531284
-4.9346e-05 -0.000356262 -0.00572446
-3.94685e-05 -0.000359768 -0.00572354
-2.93841e-05 -0.000361849 -0.00572284
-2.09877e-05 -0.000363201 -0.00572229
-1.42587e-05 -0.000364098 -0.00572186
-8.82022e-06 -0.0003647 -0.00572152
-4.29429e-06 -0.000365094 -0.00572127
-3.63434e-07 -0.000365321 -0.0057211
3.19349e-06 -0.000365418 -0.00572103
6.55101e-06 -0.000365406 -0.00572104
9.88919e-06 -0.000365301 -0.00572113
1.33662e-05 -0.000365093 -0.00572129
1.71575e-05 -0.000364739 -0.00572151
2.15439e-05 -0.000364164 -0.00572182
2.70516e-05 -0.000363289 -0.00572223
3.48948e-05 -0.000361989 -0.00572273
4.86655e-05 -0.000359976 -0.00572326
8.10812e-05 -0.000356548 -0.00572378
4.05406e-05 -0.000333402 -0.00531073
-5.3933e-05 -0.0004289 -0.00584411
-5.39028e-05 -0.000460568 -0.00629251
-4.3086e-05 -0.00046515 -0.00629165
-3.20621e-05 -0.000467843 -0.00629101
-2.29025e-05 -0.00046957 -0.00629049
-1.56029e-05 -0.000470694 -0.00629009
-9.74417e-06 -0.000471441 -0.00628978
-4.89657e-06 -0.000471921 -0.00628952
-7.21634e-07 -0.000472193 -0.00628936
3.02344e-06 -0.000472312 -0.0062893
6.53215e-06 -0.000472309 -0.00628932
1.00063e-05 -0.000472176 -0.00628941
1.36438e-05 -0.000471911 -0.00628957
1.76654e-05 -0.000471473 -0.00628979
2.2369e-05 -0.000470769 -0.00629009
2.83141e-05 -0.000469668 -0.00629048
3.68456e-05 -0.000467984 -0.00629093
5.18979e-05 -0.000465318 -0.00629142
8.72761e-05 -0.000460778 -0.00629188
4.3638e-05 -0.000429119 -0.00584206
-5.97769e-05 -0.000529797 -0.00652177
-5.96595e-05 -0.000570667 -0.00701743
-4.76198e-05 -0.000576397 -0.00701659
-3.53791e-05 -0.000579706 -0.00701596
-2.52351e-05 -0.000581774 -0.00701546
-1.72131e-05 -0.000583088 -0.00701507
-1.0832e-05 -0.000583928 -0.00701477
-5.59956e-06 -0.000584443 -0.00701453
-1.1444e-06 -0.00058473 -0.00701438
2.80889e-06 -0.000584868 -0.00701433
6.50493e-06 -0.000584887 -0.00701435
1.01528e-05 -0.000584763 -0.00701443
1.39764e-05 -0.000584468 -0.00701458
1.82476e-05 -0.000583963 -0.00701481
2.33233e-05 -0.000583144 -0.00701512
2.98266e-05 -0.000581855 -0.00701549
3.9263e-05 -0.000579812 -0.00701591
5.59337e-05 -0.00057653 -0.00701638
9.51242e-05 -0.00057083 -0.00701684
4.75621e-05 -0.00052988 -0.00651982
-6.69596e-05 -0.00063384 -0.00735951
-6.66936e-05 -0.000684699 -0.00791374
-5.31045e-05 -0.000691614 -0.0079129
-3.9328e-05 -0.000695507 -0.00791226
-2.7962e-05 -0.000697852 -0.00791177
-1.90422e-05 -0.000699288 -0.00791139
-1.20208e-05 -0.000700149 -0.00791109
-6.34508e-06 -0.000700645 -0.00791087
-1.5958e-06 -0.000700913 -0.00791073
2.56295e-06 -0.000701042 -0.00791067
6.44075e-06 -0.000701055 -0.00791068
1.02834e-05 -0.000700953 -0.00791076
1.43282e-05 -0.000700693 -0.00791091
1.88903e-05 -0.000700188 -0.00791114
2.43836e-05 -0.000699323 -0.00791145
3.15593e-05 -0.000697899 -0.00791181
4.20798e-05 -0.000695572 -0.00791222
6.07735e-05 -0.000691704 -0.00791271
0.000104727 -0.000684816 -0.00791322
5.23634e-05 -0.0006338 -0.00735767
-7.5565e-05 -0.000738961 -0.00837336
-7.50433e-05 -0.000800573 -0.00899842
-5.95185e-05 -0.000808647 -0.00899756
-4.38486e-05 -0.000813026 -0.00899694
-3.10023e-05 -0.000815543 -0.00899645
-2.10037e-05 -0.000816997 -0.00899609
-1.324e-05 -0.000817789 -0.00899579
-7.07886e-06 -0.00081819 -0.00899559
-2.02363e-06 -0.000818392 -0.00899545
2.34676e-06 -0.000818482 -0.00899537
6.37335e-06 -0.00081848 -0.00899537
1.0364e-05 -0.000818408 -0.00899546
1.46232e-05 -0.000818233 -0.00899561
1.94957e-05 -0.000817823 -0.00899584
2.54681e-05 -0.000817021 -0.00899613
3.34092e-05 -0.00081558 -0.00899649
4.52348e-05 -0.000813072 -0.00899692
6.63913e-05 -0.000808705 -0.00899744
0.000116154 -0.000800662 -0.008998
5.80771e-05 -0.000738823 -0.0083716
-8.56536e-05 -0.000842484 -0.00958048
-8.46975e-05 -0.000915534 -0.0102897
-6.67726e-05 -0.000924677 -0.0102887
-4.88179e-05 -0.000929395 -0.0102881
-3.42221e-05 -0.000931905 -0.0102876
-2.29742e-05 -0.000933196 -0.0102873
-1.43784e-05 -0.000933786 -0.010287
-7.71554e-06 -0.000933985 -0.0102868
-2.36637e-06 -0.000934029 -0.0102867
2.18379e-06 -0.00093403 -0.0102866
6.31362e-06 -0.000934035 -0.0102866
1.03816e-05 -0.000934052 -0.0102867
1.4792e-05 -0.000934021 -0.0102869
1.99515e-05 -0.000933812 -0.0102871
2.64277e-05 -0.000933224 -0.0102873
3.52371e-05 -0.000931943 -0.0102877
4.85852e-05 -0.000929429 -0.0102882
7.26705e-05 -0.000924739 -0.0102887
0.000129401 -0.000915624 -0.0102893
6.47005e-05 -0.000842253 -0.00957867
-9.72441e-05 -0.000940899 -0.0109972
-9.55975e-05 -0.00102589 -0.0118048
-7.47473e-05 -0.00103588 -0.0118039
-5.40521e-05 -0.00104063 -0.0118032
-3.73997e-05 -0.00104283 -0.0118028
-2.4754e-05 -0.00104369 -0.0118024
-1.52643e-05 -0.00104387 -0.0118022
-8.10032e-06 -0.00104375 -0.011802
-2.51337e-06 -0.00104354 -0.0118019
2.10562e-06 -0.0010434 -0.0118019
6.22273e-06 -0.00104341 -0.0118019
1.02814e-05 -0.00104355 -0.011802
1.47472e-05 -0.00104376 -0.0118021
2.01191e-05 -0.0010439 -0.0118023
2.7074e-05 -0.00104374 -0.0118025
3.68237e-05 -0.00104288 -0.0118029
5.18884e-05 -0.00104069 -0.0118033
7.94195e-05 -0.00103595 -0.0118038
0.0001444 -0.00102596 -0.0118044
7.21998e-05 -0.000940542 -0.0109953
-0.000110282 -0.00102992 -0.0126365
-0.000107543 -0.00112692 -0.0135575
-8.31206e-05 -0.0011373 -0.0135566
-5.91856e-05 -0.0011416 -0.013556
-4.01793e-05 -0.00114304 -0.0135556
-2.60268e-05 -0.00114307 -0.0135552
-1.56709e-05 -0.00114251 -0.013555
-8.06891e-06 -0.00114184 -0.0135549
-2.35877e-06 -0.00114128 -0.0135548
2.18112e-06 -0.00114097 -0.0135548
6.1289e-06 -0.00114099 -0.0135548
1.00137e-05 -0.0011413 -0.0135548
1.43707e-05 -0.00114187 -0.0135549
1.97917e-05 -0.00114258 -0.0135551
2.71336e-05 -0.00114315 -0.0135553
3.77954e-05 -0.00114312 -0.0135556
5.47732e-05 -0.0011417 -0.013556
8.62931e-05 -0.00113741 -0.0135565
0.000160892 -0.001127 -0.013557
8.04462e-05 -0.00102945 -0.0126346
-0.000124517 -0.00110504 -0.0145036
-0.000120061 -0.00121335 -0.0155529
-9.131e-05 -0.00122331 -0.0155522
-6.36237e-05 -0.0012263 -0.0155517
-4.20056e-05 -0.00122626 -0.0155513
-2.6291e-05 -0.00122495 -0.0155511
-1.51979e-05 -0.00122327 -0.0155509
-7.37857e-06 -0.00122177 -0.0155508
-1.76907e-06 -0.00122069 -0.0155508
2.46793e-06 -0.00122014 -0.0155507
6.03105e-06 -0.00122015 -0.0155508
9.50154e-06 -0.00122073 -0.0155508
1.34772e-05 -0.00122183 -0.0155509
1.87011e-05 -0.00122336 -0.015551
2.61939e-05 -0.00122504 -0.0155512
3.76532e-05 -0.00122639 -0.0155514
5.66231e-05 -0.00122647 -0.0155517
9.26357e-05 -0.00122349 -0.015552
0.000178296 -0.00121353 -0.0155525
8.91478e-05 -0.00110453 -0.0145019
-0.000139437 -0.00116312 -0.0165896
-0.000132274 -0.0012808 -0.0177816
-9.82633e-05 -0.00128878 -0.0177811
-6.63545e-05 -0.00128902 -0.0177808
-4.20436e-05 -0.00128636 -0.0177807
-2.49204e-05 -0.00128293 -0.0177806
-1.33454e-05 -0.00127969 -0.0177805
-5.65805e-06 -0.00127708 -0.0177804
-5.12222e-07 -0.00127531 -0.0177804
3.09344e-06 -0.00127443 -0.0177804
5.92555e-06 -0.00127444 -0.0177804
8.63178e-06 -0.00127535 -0.0177805
1.18729e-05 -0.00127715 -0.0177805
1.65007e-05 -0.00127979 -0.0177806
2.37304e-05 -0.00128308 -0.0177806
3.56301e-05 -0.00128658 -0.0177807
5.64522e-05 -0.00128929 -0.0177808
9.73156e-05 -0.00128905 -0.0177809
0.000195576 -0.00128109 -0.0177811
9.77879e-05 -0.00116257 -0.0165878
-0.000154041 -0.00120607 -0.0188637
-0.000142572 -0.00132889 -0.0202104
-0.000102148 -0.00133201 -0.0202103
-6.56528e-05 -0.00132713 -0.0202103
-3.8921e-05 -0.00132015 -0.0202104
-2.09623e-05 -0.00131353 -0.0202104
-9.51671e-06 -0.00130811 -0.0202105
-2.50607e-06 -0.00130411 -0.0202105
1.663e-06 -0.00130152 -0.0202106
4.16858e-06 -0.00130025 -0.0202106
5.84175e-06 -0.00130026 -0.0202106
7.33827e-06 -0.00130157 -0.0202106
9.35835e-06 -0.00130421 -0.0202106
1.27909e-05 -0.00130827 -0.0202106
1.90484e-05 -0.00131375 -0.0202105
3.06219e-05 -0.00132044 -0.0202105
5.26901e-05 -0.00132744 -0.0202104
9.84001e-05 -0.00133236 -0.0202103
0.000210686 -0.00132932 -0.0202101
0.000105343 -0.00120547 -0.0188619
-0.000166291 -0.00124888 -0.021262
-0.000147825 -0.0013682 -0.0227714
-9.97668e-05 -0.00136061 -0.0227719
-5.88077e-05 -0.00134652 -0.0227723
-3.05873e-05 -0.00133286 -0.0227726
-1.29978e-05 -0.00132179 -0.0227729
-2.83369e-06 -0.0013136 -0.0227731
2.53841e-06 -0.00130796 -0.0227733
5.01259e-06 -0.00130446 -0.0227734
5.8306e-06 -0.0013028 -0.0227734
5.81982e-06 -0.00130282 -0.0227735
5.58886e-06 -0.00130453 -0.0227735
5.73925e-06 -0.00130808 -0.0227734
7.14468e-06 -0.00131378 -0.0227732
1.12839e-05 -0.00132204 -0.022773
2.1104e-05 -0.00133316 -0.0227727
4.28925e-05 -0.00134688 -0.0227723
9.25549e-05 -0.00136108 -0.0227718
0.000219955 -0.00136877 -0.0227711
0.000109978 -0.00124815 -0.0212602
-0.000171591 -0.0013376 -0.0236773
-0.000141331 -0.00143414 -0.0253507
-8.48732e-05 -0.00140335 -0.025352
-4.11885e-05 -0.00137295 -0.025353
-1.40168e-05 -0.00134938 -0.0253536
7.67886e-07 -0.00133265 -0.0253541
7.68671e-06 -0.00132136 -0.0253545
9.99501e-06 -0.00131409 -0.0253548
9.76778e-06 -0.00130976 -0.0253549
8.19839e-06 -0.00130776 -0.025355
5.94566e-06 -0.00130778 -0.0253551
3.4139e-06 -0.00130983 -0.025355
9.79176e-07 -0.00131421 -0.0253549
-7.56683e-07 -0.00132156 -0.0253546
-4.42119e-07 -0.00133291 -0.0253542
5.01979e-06 -0.0013497 -0.0253537
2.3117e-05 -0.00137339 -0.0253529
7.3465e-05 -0.00140392 -0.0253519
0.000215717 -0.0014348 -0.0253503
0.000107859 -0.00133681 -0.0236754
-0.000157767 -0.00159831 -0.0259519
-0.000107432 -0.001618 -0.0277809
-4.45683e-05 -0.00153564 -0.027783
-4.29278e-06 -0.00147762 -0.0277844
1.5614e-05 -0.00144071 -0.0277855
2.27837e-05 -0.00141785 -0.0277862
2.31438e-05 -0.0014038 -0.0277868
2.02997e-05 -0.0013953 -0.0277872
1.60913e-05 -0.00139048 -0.0277874
1.13471e-05 -0.0013883 -0.0277876
6.32171e-06 -0.00138832 -0.0277876
9.96339e-07 -0.00139056 -0.0277875
-4.72693e-06 -0.00139543 -0.0277872
-1.08334e-05 -0.00140398 -0.0277868
-1.67158e-05 -0.00141811 -0.0277863
-1.99454e-05 -0.00144106 -0.0277855
-1.27992e-05 -0.00147808 -0.0277845
2.84719e-05 -0.00153623 -0.0277829
0.000179329 -0.00161875 -0.0277805
8.96647e-05 -0.00159765 -0.0259499
-8.39207e-05 -0.00240808 -0.0278794
-3.54279e-06 -0.00215124 -0.0298432
5.02009e-05 -0.00195337 -0.0298458
6.82143e-05 -0.00185402 -0.0298476
6.63642e-05 -0.00180321 -0.0298489
5.65554e-05 -0.00177598 -0.0298498
4.48916e-05 -0.00176079 -0.0298506
3.38346e-05 -0.00175217 -0.0298511
2.4031e-05 -0.00174747 -0.0298514
1.53013e-05 -0.0017454 -0.0298516
7.09049e-06 -0.00174543 -0.0298516
-1.30441e-06 -0.00174754 -0.0298515
-1.07607e-05 -0.0017523 -0.0298512
-2.22971e-05 -0.00176098 -0.0298507
-3.70037e-05 -0.00177625 -0.0298499
-5.527e-05 -0.00180356 -0.029849
-7.33462e-05 -0.00185449 -0.0298477
-6.8883e-05 -0.00195399 -0.0298458
5.66106e-05 -0.00215209 -0.0298428
2.83053e-05 -0.00240759 -0.0278776
0.000218632 -0.0051394 -0.0153158
0.000304431 -0.00368111 -0.0173788
0.000274524 -0.00327226 -0.0173813
0.000212729 -0.00313661 -0.0173831
0.000154425 -0.00308213 -0.0173844
0.00010875 -0.0030568 -0.0173855
7.53657e-05 -0.00304381 -0.0173864
5.1353e-05 -0.00303681 -0.0173869
3.3771e-05 -0.0030331 -0.0173873
2.01546e-05 -0.0030315 -0.0173875
8.51297e-06 -0.00303152 -0.0173876
-2.91521e-06 -0.00303317 -0.0173874
-1.59718e-05 -0.00303692 -0.017387
-3.31056e-05 -0.00304396 -0.0173864
-5.82454e-05 -0.00305699 -0.0173856
-9.831e-05 -0.00308238 -0.0173845
-0.000165294 -0.00313698 -0.0173832
-0.000271692 -0.0032728 -0.0173813
-0.000347526 -0.00368196 -0.0173785
-0.000173763 -0.00513933 -0.015314
0.00157126 -0.0025697 0.250237
0.00129065 -0.00184055 0.268959
0.000853611 -0.00163613 0.268958
0.000531342 -0.0015683 0.268956
0.000325439 -0.00154106 0.268955
0.000199641 -0.0015284 0.268954
0.000123479 -0.0015219 0.268953
7.67573e-05 -0.00151841 0.268952
4.70283e-05 -0.00151655 0.268952
2.67524e-05 -0.00151575 0.268952
1.12038e-05 -0.00151576 0.268952
-2.95984e-06 -0.00151659 0.268952
-1.87193e-05 -0.00151846 0.268952
-3.98903e-05 -0.00152198 0.268953
-7.33894e-05 -0.00152849 0.268954
-0.000135026 -0.00154119 0.268955
-0.000269734 -0.00156849 0.268956
-0.000634034 -0.0016364 0.268958
-0.0018817 -0.00184098 0.268959
-0.000940851 -0.00256966 0.250238
-1.34309e-05 -0.000111999 -0.00398498
-2.00321e-05 -0.000119903 -0.00438605
-1.99943e-05 -0.000120528 -0.00437897
-1.70564e-05 -0.000120899 -0.00437494
-1.32294e-05 -0.00012114 -0.00437255
-9.34941e-06 -0.000121301 -0.00437104
-5.70101e-06 -0.000121405 -0.00437007
-2.32831e-06 -0.000121473 -0.00436944
8.10134e-07 -0.000121512 -0.00436905
3.78017e-06 -0.000121532 -0.00436887
6.65961e-06 -0.000121537 -0.00436887
9.54275e-06 -0.000121521 -0.00436906
1.25308e-05 -0.000121479 -0.00436944
1.57332e-05 -0.000121411 -0.00437007
1.92997e-05 -0.000121308 -0.00437104
2.34599e-05 -0.000121158 -0.00437251
2.8516e-05 -0.000120945 -0.00437484
3.45971e-05 -0.000120641 -0.00437875
3.94457e-05 -0.000120205 -0.00438555
1.97229e-05 -0.000113125 -0.00398356
-1.48013e-05 -0.00027535 -0.00451667
-2.13417e-05 -0.000294855 -0.00492811
-2.10172e-05 -0.000296125 -0.00492108
-1.78043e-05 -0.00029697 -0.00491706
-1.37587e-05 -0.000297539 -0.00491466
-9.71246e-06 -0.000297926 -0.00491315
-5.94285e-06 -0.000298189 -0.00491217
-2.48198e-06 -0.000298357 -0.00491153
7.20312e-07 -0.000298461 -0.00491114
3.73704e-06 -0.000298513 -0.00491095
6.66022e-06 -0.000298521 -0.00491095
9.59117e-06 -0.000298479 -0.00491112
1.2631e-05 -0.000298378 -0.0049115
1.58936e-05 -0.000298208 -0.00491213
1.95376e-05 -0.000297959 -0.00491308
2.37992e-05 -0.000297596 -0.00491454
2.89966e-05 -0.000297074 -0.00491686
3.52789e-05 -0.000296317 -0.00492075
4.0332e-05 -0.000295261 -0.00492751
2.0166e-05 -0.000276334 -0.0045153
-1.60633e-05 -0.0004651 -0.0047692
-2.2929e-05 -0.00049925 -0.00520082
-2.24702e-05 -0.000501148 -0.0051937
-1.89795e-05 -0.000502481 -0.00518964
-1.46533e-05 -0.000503403 -0.00518722
-1.0371e-05 -0.000504037 -0.0051857
-6.40783e-06 -0.000504464 -0.00518471
-2.79984e-06 -0.000504744 -0.00518406
5.18818e-07 -0.000504913 -0.00518367
3.62981e-06 -0.000504997 -0.00518348
6.64074e-06 -0.000505005 -0.00518348
9.66279e-06 -0.000504933 -0.00518366
1.28035e-05 -0.000504768 -0.00518405
1.61792e-05 -0.000504499 -0.00518467
1.9969e-05 -0.00050409 -0.00518563
2.44303e-05 -0.000503495 -0.0051871
2.9915e-05 -0.000502629 -0.00518944
3.65742e-05 -0.000501384 -0.00519337
4.20542e-05 -0.000499639 -0.00520021
2.10271e-05 -0.000465806 -0.00476784
-1.75692e-05 -0.00067398 -0.00515245
-2.49451e-05 -0.000725136 -0.0056145
-2.4388e-05 -0.000727666 -0.00560709
-2.05761e-05 -0.000729482 -0.00560289
-1.58925e-05 -0.000730749 -0.00560042
-1.12864e-05 -0.000731621 -0.00559887
-7.06231e-06 -0.000732205 -0.00559786
-3.24531e-06 -0.000732582 -0.00559719
2.36812e-07 -0.000732806 -0.00559679
3.48328e-06 -0.000732914 -0.00559661
6.61765e-06 -0.000732917 -0.00559662
9.76387e-06 -0.000732815 -0.00559681
1.30387e-05 -0.0007326 -0.00559719
1.65824e-05 -0.000732244 -0.00559782
2.05863e-05 -0.000731694 -0.0055988
2.5344e-05 -0.000730868 -0.00560032
3.12385e-05 -0.00072965 -0.00560273
3.84527e-05 -0.000727899 -0.00560679
4.44432e-05 -0.000725465 -0.00561392
2.22216e-05 -0.000674456 -0.00515112
-1.94239e-05 -0.000899864 -0.00567081
-2.74545e-05 -0.000970036 -0.00617424
-2.67917e-05 -0.000973227 -0.00616632
-2.25825e-05 -0.000975522 -0.00616188
-1.74512e-05 -0.000977112 -0.00615929
-1.24362e-05 -0.000978186 -0.00615769
-7.87514e-06 -0.000978903 -0.00615664
-3.79247e-06 -0.000979361 -0.00615595
-1.0454e-07 -0.000979629 -0.00615554
3.31221e-06 -0.000979754 -0.00615536
6.59638e-06 -0.000979753 -0.00615538
9.88453e-06 -0.000979628 -0.00615557
1.33183e-05 -0.000979373 -0.00615597
1.70675e-05 -0.000978948 -0.00615663
2.13593e-05 -0.00097827 -0.00615765
2.65168e-05 -0.000977229 -0.00615923
3.29554e-05 -0.00097568 -0.00616175
4.0874e-05 -0.000973425 -0.00616607
4.74791e-05 -0.0009703 -0.0061737
2.37396e-05 -0.000900165 -0.00566956
-2.16925e-05 -0.00114252 -0.00633422
-3.05164e-05 -0.00123361 -0.00689087
-2.97094e-05 -0.00123749 -0.00688225
-2.49969e-05 -0.00124025 -0.00687743
-1.92949e-05 -0.00124213 -0.00687466
-1.37824e-05 -0.00124337 -0.00687297
-8.81744e-06 -0.00124417 -0.00687187
-4.42055e-06 -0.00124467 -0.00687116
-4.89975e-07 -0.00124495 -0.00687074
3.12103e-06 -0.00124508 -0.00687056
6.57341e-06 -0.00124508 -0.00687057
1.00191e-05 -0.00124496 -0.00687076
1.36311e-05 -0.00124469 -0.00687118
1.76264e-05 -0.00124421 -0.00687188
2.22665e-05 -0.00124344 -0.00687296
2.79122e-05 -0.00124222 -0.00687462
3.5034e-05 -0.00124037 -0.00687733
4.38212e-05 -0.00123765 -0.00688201
5.11975e-05 -0.00123381 -0.00689038
2.55987e-05 -0.00114267 -0.00633305
-2.44229e-05 -0.00140217 -0.00715669
-3.41726e-05 -0.00151608 -0.0077794
-3.31502e-05 -0.00152068 -0.00776987
-2.7796e-05 -0.00152388 -0.0077646
-2.14003e-05 -0.00152598 -0.0077616
-1.52777e-05 -0.00152731 -0.00775978
-9.8325e-06 -0.00152814 -0.00775863
-5.07676e-06 -0.00152862 -0.00775789
-8.84222e-07 -0.00152888 -0.00775746
2.92314e-06 -0.00152899 -0.00775725
6.5376e-06 -0.00152899 -0.00775726
1.01464e-05 -0.00152889 -0.00775746
1.39531e-05 -0.00152865 -0.00775791
1.82265e-05 -0.00152817 -0.00775864
2.3261e-05 -0.00152736 -0.00775978
2.94871e-05 -0.00152603 -0.00776156
3.74135e-05 -0.00152396 -0.0077645
4.7286e-05 -0.0015208 -0.00776968
5.56534e-05 -0.00151624 -0.00777898
2.78267e-05 -0.00140218 -0.00715561
-2.76488e-05 -0.0016785 -0.0081551
-3.84442e-05 -0.00181716 -0.00885788
-3.70998e-05 -0.00182245 -0.00884726
-3.09342e-05 -0.00182599 -0.00884144
-2.36855e-05 -0.00182823 -0.00883817
-1.68397e-05 -0.00182956 -0.00883622
-1.0846e-05 -0.00183031 -0.00883501
-5.70125e-06 -0.0018307 -0.00883425
-1.24358e-06 -0.00183089 -0.00883379
2.74402e-06 -0.00183096 -0.00883357
6.48845e-06 -0.00183097 -0.00883356
1.02327e-05 -0.00183091 -0.00883378