# vtk DataFile Version 2.0 
Visualization 
ASCII 
DATASET STRUCTURED_GRID 
DIMENSIONS 21 21 11
POINTS 4851 float
-0.1 -0.1 0.9
0 -0.1 0.9
0.1 -0.1 0.9
0.2 -0.1 0.9
0.3 -0.1 0.9
0.4 -0.1 0.9
0.5 -0.1 0.9
0.6 -0.1 0.9
0.7 -0.1 0.9
0.8 -0.1 0.9
0.9 -0.1 0.9
1 -0.1 0.9
1.1 -0.1 0.9
1.2 -0.1 0.9
1.3 -0.1 0.9
1.4 -0.1 0.9
1.5 -0.1 0.9
1.6 -0.1 0.9
1.7 -0.1 0.9
1.8 -0.1 0.9
1.9 -0.1 0.9
-0.1 0 0.9
0 0 0.9
0.1 0 0.9
0.2 0 0.9
0.3 0 0.9
0.4 0 0.9
0.5 0 0.9
0.6 0 0.9
0.7 0 0.9
0.8 0 0.9
0.9 0 0.9
1 0 0.9
1.1 0 0.9
1.2 0 0.9
1.3 0 0.9
1.4 0 0.9
1.5 0 0.9
1.6 0 0.9
1.7 0 0.9
1.8 0 0.9
1.9 0 0.9
-0.1 0.1 0.9
0 0.1 0.9
0.1 0.1 0.9
0.2 0.1 0.9
0.3 0.1 0.9
0.4 0.1 0.9
0.5 0.1 0.9
0.6 0.1 0.9
0.7 0.1 0.9
0.8 0.1 0.9
0.9 0.1 0.9
1 0.1 0.9
1.1 0.1 0.9
1.2 0.1 0.9
1.3 0.1 0.9
1.4 0.1 0.9
1.5 0.1 0.9
1.6 0.1 0.9
1.7 0.1 0.9
1.8 0.1 0.9
1.9 0.1 0.9
-0.1 0.2 0.9
0 0.2 0.9
0.1 0.2 0.9
0.2 0.2 0.9
0.3 0.2 0.9
0.4 0.2 0.9
0.5 0.2 0.9
0.6 0.2 0.9
0.7 0.2 0.9
0.8 0.2 0.9
0.9 0.2 0.9
1 0.2 0.9
1.1 0.2 0.9
1.2 0.2 0.9
1.3 0.2 0.9
1.4 0.2 0.9
1.5 0.2 0.9
1.6 0.2 0.9
1.7 0.2 0.9
1.8 0.2 0.9
1.9 0.2 0.9
-0.1 0.3 0.9
0 0.3 0.9
0.1 0.3 0.9
0.2 0.3 0.9
0.3 0.3 0.9
0.4 0.3 0.9
0.5 0.3 0.9
0.6 0.3 0.9
0.7 0.3 0.9
0.8 0.3 0.9
0.9 0.3 0.9
1 0.3 0.9
1.1 0.3 0.9
1.2 0.3 0.9
1.3 0.3 0.9
1.4 0.3 0.9
1.5 0.3 0.9
1.6 0.3 0.9
1.7 0.3 0.9
1.8 0.3 0.9
1.9 0.3 0.9
-0.1 0.4 0.9
0 0.4 0.9
0.1 0.4 0.9
0.2 0.4 0.9
0.3 0.4 0.9
0.4 0.4 0.9
0.5 0.4 0.9
0.6 0.4 0.9
0.7 0.4 0.9
0.8 0.4 0.9
0.9 0.4 0.9
1 0.4 0.9
1.1 0.4 0.9
1.2 0.4 0.9
1.3 0.4 0.9
1.4 0.4 0.9
1.5 0.4 0.9
1.6 0.4 0.9
1.7 0.4 0.9
1.8 0.4 0.9
1.9 0.4 0.9
-0.1 0.5 0.9
0 0.5 0.9
0.1 0.5 0.9
0.2 0.5 0.9
0.3 0.5 0.9
0.4 0.5 0.9
0.5 0.5 0.9
0.6 0.5 0.9
0.7 0.5 0.9
0.8 0.5 0.9
0.9 0.5 0.9
1 0.5 0.9
1.1 0.5 0.9
1.2 0.5 0.9
1.3 0.5 0.9
1.4 0.5 0.9
1.5 0.5 0.9
1.6 0.5 0.9
1.7 0.5 0.9
1.8 0.5 0.9
1.9 0.5 0.9
-0.1 0.6 0.9
0 0.6 0.9
0.1 0.6 0.9
0.2 0.6 0.9
0.3 0.6 0.9
0.4 0.6 0.9
0.5 0.6 0.9
0.6 0.6 0.9
0.7 0.6 0.9
0.8 0.6 0.9
0.9 0.6 0.9
1 0.6 0.9
1.1 0.6 0.9
1.2 0.6 0.9
1.3 0.6 0.9
1.4 0.6 0.9
1.5 0.6 0.9
1.6 0.6 0.9
1.7 0.6 0.9
1.8 0.6 0.9
1.9 0.6 0.9
-0.1 0.7 0.9
0 0.7 0.9
0.1 0.7 0.9
0.2 0.7 0.9
0.3 0.7 0.9
0.4 0.7 0.9
0.5 0.7 0.9
0.6 0.7 0.9
0.7 0.7 0.9
0.8 0.7 0.9
0.9 0.7 0.9
1 0.7 0.9
1.1 0.7 0.9
1.2 0.7 0.9
1.3 0.7 0.9
1.4 0.7 0.9
1.5 0.7 0.9
1.6 0.7 0.9
1.7 0.7 0.9
1.8 0.7 0.9
1.9 0.7 0.9
-0.1 0.8 0.9
0 0.8 0.9
0.1 0.8 0.9
0.2 0.8 0.9
0.3 0.8 0.9
0.4 0.8 0.9
0.5 0.8 0.9
0.6 0.8 0.9
0.7 0.8 0.9
0.8 0.8 0.9
0.9 0.8 0.9
1 0.8 0.9
1.1 0.8 0.9
1.2 0.8 0.9
1.3 0.8 0.9
1.4 0.8 0.9
1.5 0.8 0.9
1.6 0.8 0.9
1.7 0.8 0.9
1.8 0.8 0.9
1.9 0.8 0.9
-0.1 0.9 0.9
0 0.9 0.9
0.1 0.9 0.9
0.2 0.9 0.9
0.3 0.9 0.9
0.4 0.9 0.9
0.5 0.9 0.9
0.6 0.9 0.9
0.7 0.9 0.9
0.8 0.9 0.9
0.9 0.9 0.9
1 0.9 0.9
1.1 0.9 0.9
1.2 0.9 0.9
1.3 0.9 0.9
1.4 0.9 0.9
1.5 0.9 0.9
1.6 0.9 0.9
1.7 0.9 0.9
1.8 0.9 0.9
1.9 0.9 0.9
-0.1 1 0.9
0 1 0.9
0.1 1 0.9
0.2 1 0.9
0.3 1 0.9
0.4 1 0.9
0.5 1 0.9
0.6 1 0.9
0.7 1 0.9
0.8 1 0.9
0.9 1 0.9
1 1 0.9
1.1 1 0.9
1.2 1 0.9
1.3 1 0.9
1.4 1 0.9
1.5 1 0.9
1.6 1 0.9
1.7 1 0.9
1.8 1 0.9
1.9 1 0.9
-0.1 1.1 0.9
0 1.1 0.9
0.1 1.1 0.9
0.2 1.1 0.9
0.3 1.1 0.9
0.4 1.1 0.9
0.5 1.1 0.9
0.6 1.1 0.9
0.7 1.1 0.9
0.8 1.1 0.9
0.9 1.1 0.9
1 1.1 0.9
1.1 1.1 0.9
1.2 1.1 0.9
1.3 1.1 0.9
1.4 1.1 0.9
1.5 1.1 0.9
1.6 1.1 0.9
1.7 1.1 0.9
1.8 1.1 0.9
1.9 1.1 0.9
-0.1 1.2 0.9
0 1.2 0.9
0.1 1.2 0.9
0.2 1.2 0.9
0.3 1.2 0.9
0.4 1.2 0.9
0.5 1.2 0.9
0.6 1.2 0.9
0.7 1.2 0.9
0.8 1.2 0.9
0.9 1.2 0.9
1 1.2 0.9
1.1 1.2 0.9
1.2 1.2 0.9
1.3 1.2 0.9
1.4 1.2 0.9
1.5 1.2 0.9
1.6 1.2 0.9
1.7 1.2 0.9
1.8 1.2 0.9
1.9 1.2 0.9
-0.1 1.3 0.9
0 1.3 0.9
0.1 1.3 0.9
0.2 1.3 0.9
0.3 1.3 0.9
0.4 1.3 0.9
0.5 1.3 0.9
0.6 1.3 0.9
0.7 1.3 0.9
0.8 1.3 0.9
0.9 1.3 0.9
1 1.3 0.9
1.1 1.3 0.9
1.2 1.3 0.9
1.3 1.3 0.9
1.4 1.3 0.9
1.5 1.3 0.9
1.6 1.3 0.9
1.7 1.3 0.9
1.8 1.3 0.9
1.9 1.3 0.9
-0.1 1.4 0.9
0 1.4 0.9
0.1 1.4 0.9
0.2 1.4 0.9
0.3 1.4 0.9
0.4 1.4 0.9
0.5 1.4 0.9
0.6 1.4 0.9
0.7 1.4 0.9
0.8 1.4 0.9
0.9 1.4 0.9
1 1.4 0.9
1.1 1.4 0.9
1.2 1.4 0.9
1.3 1.4 0.9
1.4 1.4 0.9
1.5 1.4 0.9
1.6 1.4 0.9
1.7 1.4 0.9
1.8 1.4 0.9
1.9 1.4 0.9
-0.1 1.5 0.9
0 1.5 0.9
0.1 1.5 0.9
0.2 1.5 0.9
0.3 1.5 0.9
0.4 1.5 0.9
0.5 1.5 0.9
0.6 1.5 0.9
0.7 1.5 0.9
0.8 1.5 0.9
0.9 1.5 0.9
1 1.5 0.9
1.1 1.5 0.9
1.2 1.5 0.9
1.3 1.5 0.9
1.4 1.5 0.9
1.5 1.5 0.9
1.6 1.5 0.9
1.7 1.5 0.9
1.8 1.5 0.9
1.9 1.5 0.9
-0.1 1.6 0.9
0 1.6 0.9
0.1 1.6 0.9
0.2 1.6 0.9
0.3 1.6 0.9
0.4 1.6 0.9
0.5 1.6 0.9
0.6 1.6 0.9
0.7 1.6 0.9
0.8 1.6 0.9
0.9 1.6 0.9
1 1.6 0.9
1.1 1.6 0.9
1.2 1.6 0.9
1.3 1.6 0.9
1.4 1.6 0.9
1.5 1.6 0.9
1.6 1.6 0.9
1.7 1.6 0.9
1.8 1.6 0.9
1.9 1.6 0.9
-0.1 1.7 0.9
0 1.7 0.9
0.1 1.7 0.9
0.2 1.7 0.9
0.3 1.7 0.9
0.4 1.7 0.9
0.5 1.7 0.9
0.6 1.7 0.9
0.7 1.7 0.9
0.8 1.7 0.9
0.9 1.7 0.9
1 1.7 0.9
1.1 1.7 0.9
1.2 1.7 0.9
1.3 1.7 0.9
1.4 1.7 0.9
1.5 1.7 0.9
1.6 1.7 0.9
1.7 1.7 0.9
1.8 1.7 0.9
1.9 1.7 0.9
-0.1 1.8 0.9
0 1.8 0.9
0.1 1.8 0.9
0.2 1.8 0.9
0.3 1.8 0.9
0.4 1.8 0.9
0.5 1.8 0.9
0.6 1.8 0.9
0.7 1.8 0.9
0.8 1.8 0.9
0.9 1.8 0.9
1 1.8 0.9
1.1 1.8 0.9
1.2 1.8 0.9
1.3 1.8 0.9
1.4 1.8 0.9
1.5 1.8 0.9
1.6 1.8 0.9
1.7 1.8 0.9
1.8 1.8 0.9
1.9 1.8 0.9
-0.1 1.9 0.9
0 1.9 0.9
0.1 1.9 0.9
0.2 1.9 0.9
0.3 1.9 0.9
0.4 1.9 0.9
0.5 1.9 0.9
0.6 1.9 0.9
0.7 1.9 0.9
0.8 1.9 0.9
0.9 1.9 0.9
1 1.9 0.9
1.1 1.9 0.9
1.2 1.9 0.9
1.3 1.9 0.9
1.4 1.9 0.9
1.5 1.9 0.9
1.6 1.9 0.9
1.7 1.9 0.9
1.8 1.9 0.9
1.9 1.9 0.9
-0.1 -0.1 1
0 -0.1 1
0.1 -0.1 1
0.2 -0.1 1
0.3 -0.1 1
0.4 -0.1 1
0.5 -0.1 1
0.6 -0.1 1
0.7 -0.1 1
0.8 -0.1 1
0.9 -0.1 1
1 -0.1 1
1.1 -0.1 1
1.2 -0.1 1
1.3 -0.1 1
1.4 -0.1 1
1.5 -0.1 1
1.6 -0.1 1
1.7 -0.1 1
1.8 -0.1 1
1.9 -0.1 1
-0.1 0 1
0 0 1
0.1 0 1
0.2 0 1
0.3 0 1
0.4 0 1
0.5 0 1
0.6 0 1
0.7 0 1
0.8 0 1
0.9 0 1
1 0 1
1.1 0 1
1.2 0 1
1.3 0 1
1.4 0 1
1.5 0 1
1.6 0 1
1.7 0 1
1.8 0 1
1.9 0 1
-0.1 0.1 1
0 0.1 1
0.1 0.1 1
0.2 0.1 1
0.3 0.1 1
0.4 0.1 1
0.5 0.1 1
0.6 0.1 1
0.7 0.1 1
0.8 0.1 1
0.9 0.1 1
1 0.1 1
1.1 0.1 1
1.2 0.1 1
1.3 0.1 1
1.4 0.1 1
1.5 0.1 1
1.6 0.1 1
1.7 0.1 1
1.8 0.1 1
1.9 0.1 1
-0.1 0.2 1
0 0.2 1
0.1 0.2 1
0.2 0.2 1
0.3 0.2 1
0.4 0.2 1
0.5 0.2 1
0.6 0.2 1
0.7 0.2 1
0.8 0.2 1
0.9 0.2 1
1 0.2 1
1.1 0.2 1
1.2 0.2 1
1.3 0.2 1
1.4 0.2 1
1.5 0.2 1
1.6 0.2 1
1.7 0.2 1
1.8 0.2 1
1.9 0.2 1
-0.1 0.3 1
0 0.3 1
0.1 0.3 1
0.2 0.3 1
0.3 0.3 1
0.4 0.3 1
0.5 0.3 1
0.6 0.3 1
0.7 0.3 1
0.8 0.3 1
0.9 0.3 1
1 0.3 1
1.1 0.3 1
1.2 0.3 1
1.3 0.3 1
1.4 0.3 1
1.5 0.3 1
1.6 0.3 1
1.7 0.3 1
1.8 0.3 1
1.9 0.3 1
-0.1 0.4 1
0 0.4 1
0.1 0.4 1
0.2 0.4 1
0.3 0.4 1
0.4 0.4 1
0.5 0.4 1
0.6 0.4 1
0.7 0.4 1
0.8 0.4 1
0.9 0.4 1
1 0.4 1
1.1 0.4 1
1.2 0.4 1
1.3 0.4 1
1.4 0.4 1
1.5 0.4 1
1.6 0.4 1
1.7 0.4 1
1.8 0.4 1
1.9 0.4 1
-0.1 0.5 1
0 0.5 1
0.1 0.5 1
0.2 0.5 1
0.3 0.5 1
0.4 0.5 1
0.5 0.5 1
0.6 0.5 1
0.7 0.5 1
0.8 0.5 1
0.9 0.5 1
1 0.5 1
1.1 0.5 1
1.2 0.5 1
1.3 0.5 1
1.4 0.5 1
1.5 0.5 1
1.6 0.5 1
1.7 0.5 1
1.8 0.5 1
1.9 0.5 1
-0.1 0.6 1
0 0.6 1
0.1 0.6 1
0.2 0.6 1
0.3 0.6 1
0.4 0.6 1
0.5 0.6 1
0.6 0.6 1
0.7 0.6 1
0.8 0.6 1
0.9 0.6 1
1 0.6 1
1.1 0.6 1
1.2 0.6 1
1.3 0.6 1
1.4 0.6 1
1.5 0.6 1
1.6 0.6 1
1.7 0.6 1
1.8 0.6 1
1.9 0.6 1
-0.1 0.7 1
0 0.7 1
0.1 0.7 1
0.2 0.7 1
0.3 0.7 1
0.4 0.7 1
0.5 0.7 1
0.6 0.7 1
0.7 0.7 1
0.8 0.7 1
0.9 0.7 1
1 0.7 1
1.1 0.7 1
1.2 0.7 1
1.3 0.7 1
1.4 0.7 1
1.5 0.7 1
1.6 0.7 1
1.7 0.7 1
1.8 0.7 1
1.9 0.7 1
-0.1 0.8 1
0 0.8 1
0.1 0.8 1
0.2 0.8 1
0.3 0.8 1
0.4 0.8 1
0.5 0.8 1
0.6 0.8 1
0.7 0.8 1
0.8 0.8 1
0.9 0.8 1
1 0.8 1
1.1 0.8 1
1.2 0.8 1
1.3 0.8 1
1.4 0.8 1
1.5 0.8 1
1.6 0.8 1
1.7 0.8 1
1.8 0.8 1
1.9 0.8 1
-0.1 0.9 1
0 0.9 1
0.1 0.9 1
0.2 0.9 1
0.3 0.9 1
0.4 0.9 1
0.5 0.9 1
0.6 0.9 1
0.7 0.9 1
0.8 0.9 1
0.9 0.9 1
1 0.9 1
1.1 0.9 1
1.2 0.9 1
1.3 0.9 1
1.4 0.9 1
1.5 0.9 1
1.6 0.9 1
1.7 0.9 1
1.8 0.9 1
1.9 0.9 1
-0.1 1 1
0 1 1
0.1 1 1
0.2 1 1
0.3 1 1
0.4 1 1
0.5 1 1
0.6 1 1
0.7 1 1
0.8 1 1
0.9 1 1
1 1 1
1.1 1 1
1.2 1 1
1.3 1 1
1.4 1 1
1.5 1 1
1.6 1 1
1.7 1 1
1.8 1 1
1.9 1 1
-0.1 1.1 1
0 1.1 1
0.1 1.1 1
0.2 1.1 1
0.3 1.1 1
0.4 1.1 1
0.5 1.1 1
0.6 1.1 1
0.7 1.1 1
0.8 1.1 1
0.9 1.1 1
1 1.1 1
1.1 1.1 1
1.2 1.1 1
1.3 1.1 1
1.4 1.1 1
1.5 1.1 1
1.6 1.1 1
1.7 1.1 1
1.8 1.1 1
1.9 1.1 1
-0.1 1.2 1
0 1.2 1
0.1 1.2 1
0.2 1.2 1
0.3 1.2 1
0.4 1.2 1
0.5 1.2 1
0.6 1.2 1
0.7 1.2 1
0.8 1.2 1
0.9 1.2 1
1 1.2 1
1.1 1.2 1
1.2 1.2 1
1.3 1.2 1
1.4 1.2 1
1.5 1.2 1
1.6 1.2 1
1.7 1.2 1
1.8 1.2 1
1.9 1.2 1
-0.1 1.3 1
0 1.3 1
0.1 1.3 1
0.2 1.3 1
0.3 1.3 1
0.4 1.3 1
0.5 1.3 1
0.6 1.3 1
0.7 1.3 1
0.8 1.3 1
0.9 1.3 1
1 1.3 1
1.1 1.3 1
1.2 1.3 1
1.3 1.3 1
1.4 1.3 1
1.5 1.3 1
1.6 1.3 1
1.7 1.3 1
1.8 1.3 1
1.9 1.3 1
-0.1 1.4 1
0 1.4 1
0.1 1.4 1
0.2 1.4 1
0.3 1.4 1
0.4 1.4 1
0.5 1.4 1
0.6 1.4 1
0.7 1.4 1
0.8 1.4 1
0.9 1.4 1
1 1.4 1
1.1 1.4 1
1.2 1.4 1
1.3 1.4 1
1.4 1.4 1
1.5 1.4 1
1.6 1.4 1
1.7 1.4 1
1.8 1.4 1
1.9 1.4 1
-0.1 1.5 1
0 1.5 1
0.1 1.5 1
0.2 1.5 1
0.3 1.5 1
0.4 1.5 1
0.5 1.5 1
0.6 1.5 1
0.7 1.5 1
0.8 1.5 1
0.9 1.5 1
1 1.5 1
1.1 1.5 1
1.2 1.5 1
1.3 1.5 1
1.4 1.5 1
1.5 1.5 1
1.6 1.5 1
1.7 1.5 1
1.8 1.5 1
1.9 1.5 1
-0.1 1.6 1
0 1.6 1
0.1 1.6 1
0.2 1.6 1
0.3 1.6 1
0.4 1.6 1
0.5 1.6 1
0.6 1.6 1
0.7 1.6 1
0.8 1.6 1
0.9 1.6 1
1 1.6 1
1.1 1.6 1
1.2 1.6 1
1.3 1.6 1
1.4 1.6 1
1.5 1.6 1
1.6 1.6 1
1.7 1.6 1
1.8 1.6 1
1.9 1.6 1
-0.1 1.7 1
0 1.7 1
0.1 1.7 1
0.2 1.7 1
0.3 1.7 1
0.4 1.7 1
0.5 1.7 1
0.6 1.7 1
0.7 1.7 1
0.8 1.7 1
0.9 1.7 1
1 1.7 1
1.1 1.7 1
1.2 1.7 1
1.3 1.7 1
1.4 1.7 1
1.5 1.7 1
1.6 1.7 1
1.7 1.7 1
1.8 1.7 1
1.9 1.7 1
-0.1 1.8 1
0 1.8 1
0.1 1.8 1
0.2 1.8 1
0.3 1.8 1
0.4 1.8 1
0.5 1.8 1
0.6 1.8 1
0.7 1.8 1
0.8 1.8 1
0.9 1.8 1
1 1.8 1
1.1 1.8 1
1.2 1.8 1
1.3 1.8 1
1.4 1.8 1
1.5 1.8 1
1.6 1.8 1
1.7 1.8 1
1.8 1.8 1
1.9 1.8 1
-0.1 1.9 1
0 1.9 1
0.1 1.9 1
0.2 1.9 1
0.3 1.9 1
0.4 1.9 1
0.5 1.9 1
0.6 1.9 1
0.7 1.9 1
0.8 1.9 1
0.9 1.9 1
1 1.9 1
1.1 1.9 1
1.2 1.9 1
1.3 1.9 1
1.4 1.9 1
1.5 1.9 1
1.6 1.9 1
1.7 1.9 1
1.8 1.9 1
1.9 1.9 1
-0.1 -0.1 1.1
0 -0.1 1.1
0.1 -0.1 1.1
0.2 -0.1 1.1
0.3 -0.1 1.1
0.4 -0.1 1.1
0.5 -0.1 1.1
0.6 -0.1 1.1
0.7 -0.1 1.1
0.8 -0.1 1.1
0.9 -0.1 1.1
1 -0.1 1.1
1.1 -0.1 1.1
1.2 -0.1 1.1
1.3 -0.1 1.1
1.4 -0.1 1.1
1.5 -0.1 1.1
1.6 -0.1 1.1
1.7 -0.1 1.1
1.8 -0.1 1.1
1.9 -0.1 1.1
-0.1 0 1.1
0 0 1.1
0.1 0 1.1
0.2 0 1.1
0.3 0 1.1
0.4 0 1.1
0.5 0 1.1
0.6 0 1.1
0.7 0 1.1
0.8 0 1.1
0.9 0 1.1
1 0 1.1
1.1 0 1.1
1.2 0 1.1
1.3 0 1.1
1.4 0 1.1
1.5 0 1.1
[...]
CELL_DATA 4000
VECTORS velocity double 
-3.53532e-05 -0.000225681 0.00279085
-6.94195e-05 -0.000275992 0.00285692
-8.81717e-05 -0.000294938 0.00266711
-9.3797e-05 -0.000302957 0.0026346
-9.31512e-05 -0.000305567 0.00264893
-9.0671e-05 -0.000306162 0.00265931
-8.8234e-05 -0.000306153 0.00265761
-8.60548e-05 -0.000306029 0.00264475
-8.36855e-05 -0.000305901 0.00262215
-8.02198e-05 -0.000305701 0.00259067
-7.46056e-05 -0.000305295 0.00255109
-6.59174e-05 -0.000304507 0.00250438
-5.3395e-05 -0.000303089 0.00245191
-3.66554e-05 -0.00030073 0.00239564
-1.6211e-05 -0.000297133 0.00233801
5.95722e-06 -0.000291806 0.0022828
2.54677e-05 -0.000284059 0.0022446
3.31679e-05 -0.000272904 0.00228543
1.37788e-05 -0.000257865 0.00253445
6.88942e-06 -0.000219312 0.00259584
-5.98139e-05 -0.000593743 0.00257351
-0.000117771 -0.000741052 0.0015165
-0.000150002 -0.000787157 0.000835489
-0.000162135 -0.000806796 0.00069012
-0.000164293 -0.000814209 0.000695026
-0.000162531 -0.000816683 0.000710656
-0.000159483 -0.000817428 0.000711793
-0.000155702 -0.000817634 0.000697535
-0.000150803 -0.000817605 0.000669483
-0.000143797 -0.000817199 0.000628723
-0.000133433 -0.000816114 0.000576232
-0.000118467 -0.000813955 0.000513316
-9.7735e-05 -0.000810101 0.000441841
-7.05068e-05 -0.00080381 0.00036441
-3.6825e-05 -0.000794328 0.000284259
1.75199e-06 -0.000780722 0.000208091
4.10405e-05 -0.000761639 0.000168845
6.91622e-05 -0.000735634 0.000321695
5.87851e-05 -0.000699367 0.00108472
2.93926e-05 -0.000583162 0.00233741
-9.15424e-05 -0.00104402 0.00174437
-0.000171169 -0.00132366 -0.000259003
-0.000211915 -0.00140176 -0.00124855
-0.000225263 -0.00143468 -0.00146016
-0.000225476 -0.00144807 -0.00146255
-0.000220551 -0.00145323 -0.00144513
-0.000213882 -0.00145528 -0.00144231
-0.000206248 -0.00145619 -0.00145623
-0.000197194 -0.0014565 -0.00148535
-0.000185595 -0.00145604 -0.00152853
-0.000170017 -0.00145429 -0.00158475
-0.000148858 -0.00145051 -0.00165257
-0.000120585 -0.00144372 -0.00172981
-8.41568e-05 -0.00143272 -0.00181349
-3.92812e-05 -0.0014162 -0.00189978
1.30176e-05 -0.0013928 -0.00198052
6.85934e-05 -0.0013609 -0.00201369
0.00011396 -0.00131877 -0.00179428
0.000111824 -0.00125781 -0.000716358
5.5912e-05 -0.00102932 0.00150304
-0.000125239 -0.00155079 0.00073447
-0.000228264 -0.00199767 -0.00213818
-0.000278376 -0.00211422 -0.00337235
-0.000292915 -0.00216231 -0.00363304
-0.000290554 -0.0021827 -0.00364079
-0.000281563 -0.00219121 -0.00362194
-0.000270264 -0.00219504 -0.00361775
-0.000257755 -0.00219703 -0.00363127
-0.000243572 -0.00219799 -0.0036611
-0.000226406 -0.00219772 -0.00370612
-0.000204552 -0.00219547 -0.00376523
-0.000176078 -0.00219008 -0.00383685
-0.000139046 -0.00218017 -0.00391847
-9.19931e-05 -0.00216404 -0.00400654
-3.44086e-05 -0.00213977 -0.0040965
3.28498e-05 -0.00210543 -0.00417887
0.000105237 -0.0020593 -0.0042053
0.000166701 -0.00199926 -0.00393489
0.00016998 -0.00190795 -0.00260911
8.49901e-05 -0.0015326 0.000489049
-0.000162331 -0.00209885 -0.000597096
-0.000291766 -0.00274678 -0.00449143
-0.000352643 -0.00290973 -0.00600011
-0.000368624 -0.00297531 -0.00631591
-0.000363347 -0.00300373 -0.00633049
-0.000349692 -0.00301622 -0.00631067
-0.000333064 -0.00302231 -0.00630524
-0.000314968 -0.00302579 -0.00631843
-0.000294947 -0.00302777 -0.00634905
-0.000271458 -0.00302803 -0.00639594
-0.000242407 -0.00302559 -0.00645793
-0.000205539 -0.00301887 -0.00653329
-0.000158433 -0.00300589 -0.00661914
-9.91097e-05 -0.00298439 -0.00671125
-2.67218e-05 -0.00295175 -0.00680418
5.7678e-05 -0.00290552 -0.00688689
0.000148883 -0.00284352 -0.00690423
0.000227581 -0.00276298 -0.00657632
0.000235378 -0.0026336 -0.00497397
0.000117689 -0.00207814 -0.000847103
-0.000204831 -0.00266633 -0.00237742
-0.000364777 -0.00354488 -0.0075497
-0.000438019 -0.00376262 -0.00939706
-0.00045552 -0.00384812 -0.00978206
-0.000446722 -0.00388556 -0.00980651
-0.000427545 -0.0039026 -0.00978664
-0.000404727 -0.00391138 -0.00978039
-0.000380186 -0.0039168 -0.00979348
-0.000353506 -0.00392027 -0.00982493
-0.000322927 -0.00392152 -0.00987368
-0.000285848 -0.00391938 -0.00993847
-0.000239485 -0.00391185 -0.0100173
-0.000180907 -0.0038962 -0.010107
-0.000107497 -0.00386938 -0.0102025
-1.80594e-05 -0.00382811 -0.0102974
8.63905e-05 -0.00376908 -0.0103791
0.000199423 -0.00368967 -0.0103837
0.000298177 -0.00358532 -0.00998462
0.000310841 -0.00340932 -0.00804252
0.000155421 -0.00264464 -0.00263148
-0.000253686 -0.00321575 -0.00471643
-0.000448757 -0.00434614 -0.011481
-0.00053607 -0.00462649 -0.0137464
-0.000555064 -0.00473399 -0.0142181
-0.000541964 -0.00478107 -0.0142565
-0.000516263 -0.00480302 -0.0142379
-0.000486297 -0.00481485 -0.0142316
-0.000454447 -0.00482262 -0.014245
-0.000420281 -0.00482813 -0.0142774
-0.000381854 -0.00483102 -0.0143279
-0.000336055 -0.00482984 -0.0143952
-0.000279258 -0.00482223 -0.0144769
-0.000207858 -0.00480477 -0.0145695
-0.000118599 -0.00477338 -0.0146672
-9.62054e-06 -0.00472379 -0.0147626
0.000117967 -0.0046517 -0.0148408
0.000256831 -0.00455341 -0.0148284
0.000379188 -0.00442208 -0.0143408
0.000397647 -0.00419076 -0.0119811
0.000198823 -0.00319528 -0.00497292
-0.000308934 -0.00368725 -0.00772283
-0.000543657 -0.0050766 -0.0164459
-0.000646551 -0.0054254 -0.0192215
-0.000666816 -0.00555608 -0.0198007
-0.000648573 -0.00561279 -0.0198579
-0.000615366 -0.00563952 -0.0198425
-0.0005773 -0.00565444 -0.0198371
-0.00053739 -0.00566478 -0.0198514
-0.000495108 -0.00567277 -0.019885
-0.000448242 -0.00567808 -0.0199369
-0.000393236 -0.0056789 -0.020006
-0.00032554 -0.00567244 -0.0200897
-0.000240489 -0.00565465 -0.0201839
-0.000133957 -0.00562042 -0.0202821
-3.24687e-06 -0.00556397 -0.0203756
0.000150878 -0.00547964 -0.0204472
0.000319725 -0.00536211 -0.0204118
0.000469872 -0.00520114 -0.0198156
0.000495519 -0.00490649 -0.0169484
0.000247759 -0.00367096 -0.00797909
-0.000369515 -0.00399313 -0.0114934
-0.000647531 -0.0056266 -0.0225902
-0.000766966 -0.00604578 -0.0259806
-0.000787982 -0.00619887 -0.0266909
-0.000763612 -0.00626399 -0.0267727
-0.00072194 -0.00629475 -0.0267626
-0.000674975 -0.00631249 -0.0267593
-0.000626508 -0.00632542 -0.0267751
-0.000575943 -0.00633615 -0.0268101
-0.000520631 -0.00634453 -0.0268632
-0.000456514 -0.00634862 -0.0269333
-0.000378184 -0.00634516 -0.0270179
-0.000279693 -0.00632952 -0.027112
-0.00015544 -0.00629543 -0.0272084
-1.58651e-06 -0.00623548 -0.0272971
0.000181861 -0.00614171 -0.0273585
0.000384839 -0.00600661 -0.0272932
0.000567412 -0.00581472 -0.0265653
0.000602248 -0.00545076 -0.0230885
0.000301124 -0.00398486 -0.0117462
-0.000432722 -0.00401469 -0.0160891
-0.00075552 -0.00584533 -0.0300114
-0.00089116 -0.00633017 -0.0341313
-0.000911894 -0.00650194 -0.0349982
-0.00088049 -0.00657252 -0.0351106
-0.000829734 -0.00660545 -0.035108
-0.000773479 -0.00662504 -0.0351079
-0.000716291 -0.00664028 -0.0351257
-0.000657796 -0.00665384 -0.0351621
-0.000594918 -0.00666583 -0.0352162
-0.000522959 -0.00667449 -0.0352866
-0.000435621 -0.00667641 -0.0353706
-0.00032547 -0.00666644 -0.0354631
-0.000185065 -0.00663731 -0.0355555
-8.43436e-06 -0.00657957 -0.0356368
0.000205493 -0.00648261 -0.0356841
0.000446078 -0.00633483 -0.0355822
0.000665702 -0.00611394 -0.0346973
0.000712503 -0.00567861 -0.0304986
0.000356251 -0.00401933 -0.0163345
-0.000493467 -0.0036042 -0.0215019
-0.000858486 -0.00554081 -0.0387132
-0.00100789 -0.00607644 -0.0436816
-0.00102657 -0.0062584 -0.0447302
-0.000987202 -0.00632903 -0.0448778
-0.000927254 -0.00636098 -0.0448841
-0.000862153 -0.00638059 -0.0448881
-0.00079695 -0.00639714 -0.044908
-0.000731706 -0.00641326 -0.0449456
-0.000663237 -0.00642919 -0.0450002
-0.000586259 -0.00644363 -0.0450702
-0.000493556 -0.00645354 -0.0451529
-0.000376139 -0.00645376 -0.0452425
-0.00022409 -0.00643631 -0.04533
-2.87147e-05 -0.00638995 -0.0454027
0.000213914 -0.00630039 -0.0454344
0.000493129 -0.00615053 -0.0452909
0.000753645 -0.00590787 -0.0442243
0.000816161 -0.00540586 -0.0391852
0.00040808 -0.003627 -0.0217363
-0.000543217 -0.0025968 -0.0276192
-0.000941244 -0.00449081 -0.0485553
-0.00109842 -0.00504707 -0.0544867
-0.00111224 -0.00522393 -0.0557379
-0.00106428 -0.00528597 -0.0559224
-0.000995829 -0.00531238 -0.0559368
-0.00092345 -0.00532945 -0.0559443
-0.0008524 -0.00534564 -0.0559661
-0.000783036 -0.00536335 -0.0560043
-0.000712469 -0.00538294 -0.0560586
-0.000635224 -0.00540386 -0.0561276
-0.000543407 -0.00542411 -0.0562086
-0.000426554 -0.00543946 -0.0562958
-0.000272081 -0.00544208 -0.0563796
-6.72022e-05 -0.00541957 -0.0564461
0.000196424 -0.00535393 -0.0564655
0.000510643 -0.00522051 -0.056281
0.000813391 -0.00497242 -0.0550128
0.000896741 -0.00441939 -0.0490167
0.00044837 -0.002642 -0.0278409
-0.000568595 -0.000837547 -0.0341993
-0.000979622 -0.00247092 -0.0592185
-0.0011334 -0.00299644 -0.0662088
-0.00113842 -0.00314401 -0.0676747
-0.00108221 -0.0031851 -0.0678924
-0.00100755 -0.00319998 -0.0679107
-0.000931159 -0.00321131 -0.0679189
-0.000858279 -0.00322499 -0.0679409
-0.000789416 -0.00324254 -0.0679784
-0.000722255 -0.00326459 -0.0680312
-0.000651787 -0.00329166 -0.0680987
-0.000570158 -0.00332357 -0.0681786
-0.000465903 -0.00335812 -0.0682657
-0.000323983 -0.00338951 -0.0683507
-0.000126763 -0.00340577 -0.0684194
0.000140993 -0.00338649 -0.0684381
0.000477644 -0.00329827 -0.0682238
0.000818447 -0.00307515 -0.0667446
0.000928891 -0.00250501 -0.0596877
0.000464446 -0.000906573 -0.0344091
-0.000549281 0.00177197 -0.0408689
-0.00093718 0.000696141 -0.0701952
-0.00106927 0.000281103 -0.0783075
-0.00106041 0.000197385 -0.0799859
-0.000998059 0.000192616 -0.0802258
-0.000922263 0.000195995 -0.08024
-0.000848031 0.000193833 -0.0802435
-0.000779997 0.000185145 -0.0802618
-0.00071886 0.000170137 -0.080296
-0.000663141 0.000147961 -0.0803459
-0.000609078 0.000116687 -0.0804114
-0.000549846 7.40098e-05 -0.0804919
-0.000474502 1.86024e-05 -0.0805838
-0.000366481 -4.77412e-05 -0.0806799
-0.000203799 -0.000117202 -0.0807671
3.79441e-05 -0.000170239 -0.0808087
0.000369168 -0.000166882 -0.0805911
0.000731727 -1.87637e-05 -0.0789083
0.000875157 0.000505633 -0.0707117
0.000437578 0.00168364 -0.0410712
-0.000454495 0.00520129 -0.0471512
-0.000759905 0.00506418 -0.0807723
-0.000843436 0.00487722 -0.0900031
-0.000815326 0.00490283 -0.09187
-0.000751883 0.00495096 -0.092112
-0.00068415 0.00497854 -0.0921098
-0.000622548 0.00498836 -0.0921008
-0.000570135 0.00498706 -0.0921103
-0.000527646 0.00497734 -0.0921373
-0.000494714 0.00495832 -0.0921817
-0.000469485 0.0049266 -0.0922446
-0.000447584 0.00487709 -0.0923274
-0.000420396 0.00480395 -0.0924305
-0.00037307 0.00470229 -0.092551
-0.000281417 0.00457173 -0.0926803
-0.000112552 0.00442347 -0.0927805
0.000161927 0.0042961 -0.0926042
0.000506321 0.00429524 -0.0907522
0.000682495 0.00466439 -0.0813972
0.000341248 0.00510791 -0.0473537
-0.00023281 0.00918 -0.0521615
-0.000364101 0.0104406 -0.0892714
-0.000364368 0.0106416 -0.099372
-0.000314924 0.0108281 -0.10135
-0.000261819 0.0109425 -0.101563
-0.000218383 0.0109972 -0.101529
-0.000186838 0.0110203 -0.101499
-0.000167405 0.0110282 -0.101494
-0.00016041 0.0110263 -0.10151
-0.000166516 0.0110141 -0.101546
-0.000186088 0.0109872 -0.101605
-0.000218341 0.0109378 -0.101692
-0.000259686 0.0108559 -0.101813
-0.000300889 0.0107286 -0.101971
-0.000322229 0.0105431 -0.102168
-0.000288334 0.010293 -0.102369
-0.000153437 0.00999808 -0.102295
8.92853e-05 0.00975749 -0.100366
0.000271994 0.00979591 -0.0900746
0.000135997 0.00910679 -0.0523739
0.00019678 0.0130127 -0.0524976
0.000368299 0.0161436 -0.088559
0.000486738 0.0169106 -0.098085
0.000548884 0.0172976 -0.099837
0.000568006 0.0174807 -0.0999536
0.00055932 0.01756 -0.0998728
0.00053233 0.0175954 -0.0998166
0.000491239 0.0176128 -0.0997935
0.000436925 0.0176203 -0.0997959
0.000368406 0.0176177 -0.0998223
0.000283386 0.0176002 -0.0998767
0.00017891 0.0175595 -0.0999672
5.16489e-05 0.0174822 -0.100106
-9.94901e-05 0.0173495 -0.100308
-0.000268624 0.0171356 -0.100586
-0.000434249 0.0168098 -0.100921
-0.000550583 0.0163507 -0.101038
-0.000561928 0.0158009 -0.0993782
-0.000468892 0.0152797 -0.0895757
-0.000234446 0.0129865 -0.0527246
0.000913454 0.0152789 -0.0336667
0.0015257 0.0204918 -0.0508942
0.0017766 0.0219053 -0.0545169
0.0018194 0.0224775 -0.0548515
0.00176094 0.0227091 -0.0546652
0.00165529 0.0228028 -0.0545112
0.00152675 0.0228461 -0.054428
0.00138553 0.0228711 -0.0543896
0.00123501 0.0228867 -0.0543807
0.00107495 0.0228935 -0.0543982
0.000902414 0.0228875 -0.0544467
0.000711324 0.0228609 -0.0545367
0.000492152 0.0228013 -0.0546849
0.000231162 0.0226884 -0.0549156
-8.83966e-05 0.0224902 -0.0552594
-0.000481838 0.0221565 -0.0557349
-0.000947606 0.0216166 -0.0562357
-0.00142198 0.0208021 -0.0560295
-0.00163599 0.0195728 -0.052062
-0.000817995 0.0152963 -0.0339189
0.00180008 0.0136362 0.0557004
0.00286046 0.0197754 0.100869
0.0031749 0.0214163 0.1131
0.00312161 0.0220007 0.116145
0.00291833 0.0222174 0.116957
0.00266014 0.0223019 0.117217
0.00238668 0.0223419 0.11732
0.00211433 0.0223662 0.117365
0.00184893 0.0223829 0.117379
0.00159079 0.0223928 0.117368
0.00133631 0.0223935 0.117328
0.00107783 0.02238 0.117249
0.000801664 0.0223437 0.117114
0.00048514 0.0222695 0.116897
9.00611e-05 0.0221314 0.116549
-0.000446991 0.0218823 0.115972
-0.00121659 0.0214392 0.114838
-0.00224894 0.020661 0.111657
-0.00302547 0.0191338 0.0997339
-0.00151274 0.0136337 0.0553636
0.00168917 0.00681809 0.387219
0.0026116 0.00988771 0.525827
0.00276271 0.0107082 0.549915
0.00257665 0.0110003 0.554376
0.00228454 0.0111087 0.555316
0.00197655 0.011151 0.555557
0.0016855 0.0111709 0.555636
0.00142197 0.0111831 0.555666
0.00118714 0.0111915 0.555674
0.000977755 0.0111964 0.555665
0.000787973 0.0111967 0.555639
0.000609507 0.01119 0.555589
0.000430224 0.0111718 0.555504
0.000230714 0.0111348 0.555364
-2.41265e-05 0.0110657 0.555127
-0.000402661 0.0109412 0.55467
-0.00102565 0.0107196 0.553492
-0.00198751 0.0103305 0.548906
-0.00277296 0.00956692 0.524985
-0.00138648 0.00681687 0.386739
-1.48358e-05 -0.000192416 0.00318058
-2.78739e-05 -0.00023003 0.00332726
-3.62447e-05 -0.000242809 0.00314163
-3.98677e-05 -0.000248225 0.0031131
-4.22357e-05 -0.000249866 0.00313158
-4.55773e-05 -0.000250103 0.00314479
-5.05441e-05 -0.000250013 0.00314463
-5.68357e-05 -0.000249968 0.00313232
-6.36697e-05 -0.000250034 0.0031094
-7.00036e-05 -0.00025016 0.00307669
-7.46374e-05 -0.00025023 0.00303476
-7.63649e-05 -0.000250095 0.00298433
-7.39989e-05 -0.000249521 0.00292671
-6.66067e-05 -0.000248178 0.00286394
-5.41383e-05 -0.000245755 0.00279877
-3.81901e-05 -0.000241793 0.00273596
-2.28935e-05 -0.000235818 0.00269201
-1.63638e-05 -0.0002274 0.00273247
-2.75933e-05 -0.000216406 0.00298669
-1.37967e-05 -0.000184248 0.00298311
-2.7412e-05 -0.0005269 0.00308532
-5.50362e-05 -0.000649939 0.00212537
-7.15998e-05 -0.000683966 0.00143876
-7.90766e-05 -0.000697896 0.00129574
-8.33098e-05 -0.000702715 0.00130609
-8.77273e-05 -0.000703933 0.00132581
-9.34737e-05 -0.000704091 0.0013292
-0.000100398 -0.000704173 0.00131576
-0.000107693 -0.000704383 0.00128726
-0.000114154 -0.000704605 0.00124471
-0.000118315 -0.000704587 0.00118886
-0.000118552 -0.000703948 0.00112072
-0.000113135 -0.000702094 0.00104198
-0.000100637 -0.000698314 0.000955298
-8.04136e-05 -0.000691743 0.00086446
-5.37069e-05 -0.000681441 0.000777399
-2.4861e-05 -0.000666397 0.000730322
-4.56188e-06 -0.000646107 0.000885883
-9.40763e-06 -0.000618033 0.00166792
-4.70381e-06 -0.000515825 0.00284339
-5.05652e-05 -0.000971381 0.0023328
-9.42939e-05 -0.0012219 0.000420287
-0.000117385 -0.00128379 -0.000581959
-0.00012605 -0.00130828 -0.000791719
-0.000129256 -0.00131737 -0.000787611
-0.000131881 -0.00132019 -0.000765215
-0.000135639 -0.00132101 -0.00075961
-0.000140458 -0.00132143 -0.000772433
-0.00014546 -0.00132189 -0.000801966
-0.000149317 -0.00132229 -0.000847157
-0.000150353 -0.00132215 -0.000907272
-0.000146605 -0.00132078 -0.000981207
-0.000136 -0.00131722 -0.00106701
-0.000116654 -0.00131026 -0.00116169
-8.75441e-05 -0.00129843 -0.0012608
-4.95155e-05 -0.00128027 -0.00135468
-7.2564e-06 -0.00125451 -0.00139737
2.68077e-05 -0.00122041 -0.00117387
2.85755e-05 -0.00117027 -6.73323e-05
1.42877e-05 -0.000958185 0.0020838
-7.7282e-05 -0.00151562 0.00141861
-0.000139741 -0.00193936 -0.00136459
-0.000170604 -0.00203772 -0.00261557
-0.000180673 -0.00207528 -0.00287384
-0.000182447 -0.00208983 -0.00287372
-0.000182612 -0.00209496 -0.00284886
-0.0001835 -0.00209685 -0.00284119
-0.00018527 -0.00209797 -0.00285327
-0.000187042 -0.00209897 -0.00288344
-0.000187287 -0.0020997 -0.00293065
-0.000184055 -0.00209948 -0.00299418
-0.000175065 -0.0020973 -0.00307287
-0.000157798 -0.00209174 -0.0031645
-0.000129871 -0.002081 -0.00326551
-8.99003e-05 -0.00206298 -0.00337072
-3.86459e-05 -0.00203559 -0.00346884
1.86599e-05 -0.00199728 -0.0035069
6.69035e-05 -0.00194685 -0.00323208
7.37826e-05 -0.00186709 -0.00187087
3.68913e-05 -0.00150057 0.00116358
-0.000107913 -0.00215933 0.000192307
-0.000192368 -0.00280617 -0.00361585
-0.000232429 -0.00295185 -0.00514606
-0.000244118 -0.00300567 -0.00545878
-0.000244083 -0.0030271 -0.00546388
-0.000241095 -0.00303535 -0.00543684
-0.000238404 -0.00303889 -0.00542717
-0.000236397 -0.00304111 -0.00543847
-0.000234163 -0.00304297 -0.00546927
-0.000229995 -0.00304428 -0.0055185
-0.000221623 -0.00304416 -0.00558546
-0.000206345 -0.00304121 -0.00566895
-0.00018111 -0.00303345 -0.00576643
-0.000142962 -0.00301841 -0.00587369
-9.00858e-05 -0.00299324 -0.00598463
-2.32821e-05 -0.0029552 -0.00608614
5.13558e-05 -0.00290215 -0.00611747
0.000115393 -0.00283192 -0.00578479
0.000126838 -0.00271231 -0.00413915
6.34191e-05 -0.00214278 -6.92858e-05
-0.000144175 -0.0028974 -0.00148646
-0.000254867 -0.00381948 -0.0065838
-0.000305798 -0.00402504 -0.00845974
-0.000319186 -0.00409878 -0.00884138
-0.000316688 -0.00412863 -0.0088547
-0.000309656 -0.00414085 -0.00882628
-0.000302399 -0.00414666 -0.00881494
-0.000295667 -0.0041505 -0.00882563
-0.000288522 -0.00415366 -0.00885704
-0.000279049 -0.00415591 -0.00890825
-0.000264577 -0.00415618 -0.00897854
-0.000241862 -0.00415262 -0.00906659
-0.000207212 -0.00414262 -0.00916959
-0.000156974 -0.00412291 -0.0092827
-8.88656e-05 -0.0040898 -0.00939869
-3.55151e-06 -0.00403954 -0.00950236
9.15739e-05 -0.0039694 -0.00952358
0.000174257 -0.0038749 -0.00911865
0.00019053 -0.00370333 -0.00712278
9.5265e-05 -0.00288012 -0.00175412
-0.000187366 -0.00371054 -0.00374387
-0.00032932 -0.00495904 -0.0104577
-0.000393009 -0.00523798 -0.0127622
-0.00040812 -0.00533544 -0.0132311
-0.00040233 -0.00537511 -0.0132568
-0.000390164 -0.00539215 -0.0132283
-0.000377238 -0.00540083 -0.013216
-0.000364698 -0.0054068 -0.0132264
-0.000351608 -0.00541173 -0.0132585
-0.00033583 -0.00541541 -0.0133115
-0.000314225 -0.00541647 -0.0133847
-0.000282853 -0.00541269 -0.0134766
-0.000237236 -0.00540074 -0.0135842
-0.000172916 -0.00537643 -0.013702
-8.67989e-05 -0.00533488 -0.0138216
2.04087e-05 -0.00527128 -0.0139252
0.000140173 -0.00518153 -0.0139317
0.000245091 -0.00505804 -0.0134364
0.000266843 -0.00482086 -0.0110088
0.000133421 -0.00369374 -0.00401586
-0.000238193 -0.00455627 -0.00671101
-0.000416776 -0.00617647 -0.0154268
-0.000495177 -0.00654221 -0.0182568
-0.000511902 -0.00666679 -0.0188348
-0.00050195 -0.00671735 -0.0188781
-0.000483475 -0.00673968 -0.0188516
-0.000463659 -0.00675166 -0.0188394
-0.000444183 -0.0067602 -0.0188501
-0.000424114 -0.00676739 -0.018883
-0.000401027 -0.00677306 -0.0189374
-0.000371328 -0.0067756 -0.0190127
-0.000330261 -0.00677234 -0.0191074
-0.00027233 -0.00675929 -0.019218
-0.000191934 -0.00673116 -0.0193384
-8.50906e-05 -0.00668164 -0.019459
4.79407e-05 -0.00660427 -0.0195593
0.000196911 -0.00649318 -0.0195447
0.000328421 -0.00633587 -0.0189374
0.000356809 -0.00601847 -0.0159833
0.000178404 -0.00454183 -0.00698435
-0.000296535 -0.00535937 -0.0105151
-0.000516898 -0.00738276 -0.0216745
-0.000611615 -0.00784675 -0.0251413
-0.000629651 -0.0080005 -0.0258541
-0.000614444 -0.00806201 -0.0259215
-0.000588458 -0.00808961 -0.0258995