# vtk DataFile Version 2.0 
Visualization 
ASCII 
DATASET STRUCTURED_GRID 
DIMENSIONS 21 21 11
POINTS 4851 float
-0.1 -0.1 0.9
0 -0.1 0.9
0.1 -0.1 0.9
0.2 -0.1 0.9
0.3 -0.1 0.9
0.4 -0.1 0.9
0.5 -0.1 0.9
0.6 -0.1 0.9
0.7 -0.1 0.9
0.8 -0.1 0.9
0.9 -0.1 0.9
1 -0.1 0.9
1.1 -0.1 0.9
1.2 -0.1 0.9
1.3 -0.1 0.9
1.4 -0.1 0.9
1.5 -0.1 0.9
1.6 -0.1 0.9
1.7 -0.1 0.9
1.8 -0.1 0.9
1.9 -0.1 0.9
-0.1 0 0.9
0 0 0.9
0.1 0 0.9
0.2 0 0.9
0.3 0 0.9
0.4 0 0.9
0.5 0 0.9
0.6 0 0.9
0.7 0 0.9
0.8 0 0.9
0.9 0 0.9
1 0 0.9
1.1 0 0.9
1.2 0 0.9
1.3 0 0.9
1.4 0 0.9
1.5 0 0.9
1.6 0 0.9
1.7 0 0.9
1.8 0 0.9
1.9 0 0.9
-0.1 0.1 0.9
0 0.1 0.9
0.1 0.1 0.9
0.2 0.1 0.9
0.3 0.1 0.9
0.4 0.1 0.9
0.5 0.1 0.9
0.6 0.1 0.9
0.7 0.1 0.9
0.8 0.1 0.9
0.9 0.1 0.9
1 0.1 0.9
1.1 0.1 0.9
1.2 0.1 0.9
1.3 0.1 0.9
1.4 0.1 0.9
1.5 0.1 0.9
1.6 0.1 0.9
1.7 0.1 0.9
1.8 0.1 0.9
1.9 0.1 0.9
-0.1 0.2 0.9
0 0.2 0.9
0.1 0.2 0.9
0.2 0.2 0.9
0.3 0.2 0.9
0.4 0.2 0.9
0.5 0.2 0.9
0.6 0.2 0.9
0.7 0.2 0.9
0.8 0.2 0.9
0.9 0.2 0.9
1 0.2 0.9
1.1 0.2 0.9
1.2 0.2 0.9
1.3 0.2 0.9
1.4 0.2 0.9
1.5 0.2 0.9
1.6 0.2 0.9
1.7 0.2 0.9
1.8 0.2 0.9
1.9 0.2 0.9
-0.1 0.3 0.9
0 0.3 0.9
0.1 0.3 0.9
0.2 0.3 0.9
0.3 0.3 0.9
0.4 0.3 0.9
0.5 0.3 0.9
0.6 0.3 0.9
0.7 0.3 0.9
0.8 0.3 0.9
0.9 0.3 0.9
1 0.3 0.9
1.1 0.3 0.9
1.2 0.3 0.9
1.3 0.3 0.9
1.4 0.3 0.9
1.5 0.3 0.9
1.6 0.3 0.9
1.7 0.3 0.9
1.8 0.3 0.9
1.9 0.3 0.9
-0.1 0.4 0.9
0 0.4 0.9
0.1 0.4 0.9
0.2 0.4 0.9
0.3 0.4 0.9
0.4 0.4 0.9
0.5 0.4 0.9
0.6 0.4 0.9
0.7 0.4 0.9
0.8 0.4 0.9
0.9 0.4 0.9
1 0.4 0.9
1.1 0.4 0.9
1.2 0.4 0.9
1.3 0.4 0.9
1.4 0.4 0.9
1.5 0.4 0.9
1.6 0.4 0.9
1.7 0.4 0.9
1.8 0.4 0.9
1.9 0.4 0.9
-0.1 0.5 0.9
0 0.5 0.9
0.1 0.5 0.9
0.2 0.5 0.9
0.3 0.5 0.9
0.4 0.5 0.9
0.5 0.5 0.9
0.6 0.5 0.9
0.7 0.5 0.9
0.8 0.5 0.9
0.9 0.5 0.9
1 0.5 0.9
1.1 0.5 0.9
1.2 0.5 0.9
1.3 0.5 0.9
1.4 0.5 0.9
1.5 0.5 0.9
1.6 0.5 0.9
1.7 0.5 0.9
1.8 0.5 0.9
1.9 0.5 0.9
-0.1 0.6 0.9
0 0.6 0.9
0.1 0.6 0.9
0.2 0.6 0.9
0.3 0.6 0.9
0.4 0.6 0.9
0.5 0.6 0.9
0.6 0.6 0.9
0.7 0.6 0.9
0.8 0.6 0.9
0.9 0.6 0.9
1 0.6 0.9
1.1 0.6 0.9
1.2 0.6 0.9
1.3 0.6 0.9
1.4 0.6 0.9
1.5 0.6 0.9
1.6 0.6 0.9
1.7 0.6 0.9
1.8 0.6 0.9
1.9 0.6 0.9
-0.1 0.7 0.9
0 0.7 0.9
0.1 0.7 0.9
0.2 0.7 0.9
0.3 0.7 0.9
0.4 0.7 0.9
0.5 0.7 0.9
0.6 0.7 0.9
0.7 0.7 0.9
0.8 0.7 0.9
0.9 0.7 0.9
1 0.7 0.9
1.1 0.7 0.9
1.2 0.7 0.9
1.3 0.7 0.9
1.4 0.7 0.9
1.5 0.7 0.9
1.6 0.7 0.9
1.7 0.7 0.9
1.8 0.7 0.9
1.9 0.7 0.9
-0.1 0.8 0.9
0 0.8 0.9
0.1 0.8 0.9
0.2 0.8 0.9
0.3 0.8 0.9
0.4 0.8 0.9
0.5 0.8 0.9
0.6 0.8 0.9
0.7 0.8 0.9
0.8 0.8 0.9
0.9 0.8 0.9
1 0.8 0.9
1.1 0.8 0.9
1.2 0.8 0.9
1.3 0.8 0.9
1.4 0.8 0.9
1.5 0.8 0.9
1.6 0.8 0.9
1.7 0.8 0.9
1.8 0.8 0.9
1.9 0.8 0.9
-0.1 0.9 0.9
0 0.9 0.9
0.1 0.9 0.9
0.2 0.9 0.9
0.3 0.9 0.9
0.4 0.9 0.9
0.5 0.9 0.9
0.6 0.9 0.9
0.7 0.9 0.9
0.8 0.9 0.9
0.9 0.9 0.9
1 0.9 0.9
1.1 0.9 0.9
1.2 0.9 0.9
1.3 0.9 0.9
1.4 0.9 0.9
1.5 0.9 0.9
1.6 0.9 0.9
1.7 0.9 0.9
1.8 0.9 0.9
1.9 0.9 0.9
-0.1 1 0.9
0 1 0.9
0.1 1 0.9
0.2 1 0.9
0.3 1 0.9
0.4 1 0.9
0.5 1 0.9
0.6 1 0.9
0.7 1 0.9
0.8 1 0.9
0.9 1 0.9
1 1 0.9
1.1 1 0.9
1.2 1 0.9
1.3 1 0.9
1.4 1 0.9
1.5 1 0.9
1.6 1 0.9
1.7 1 0.9
1.8 1 0.9
1.9 1 0.9
-0.1 1.1 0.9
0 1.1 0.9
0.1 1.1 0.9
0.2 1.1 0.9
0.3 1.1 0.9
0.4 1.1 0.9
0.5 1.1 0.9
0.6 1.1 0.9
0.7 1.1 0.9
0.8 1.1 0.9
0.9 1.1 0.9
1 1.1 0.9
1.1 1.1 0.9
1.2 1.1 0.9
1.3 1.1 0.9
1.4 1.1 0.9
1.5 1.1 0.9
1.6 1.1 0.9
1.7 1.1 0.9
1.8 1.1 0.9
1.9 1.1 0.9
-0.1 1.2 0.9
0 1.2 0.9
0.1 1.2 0.9
0.2 1.2 0.9
0.3 1.2 0.9
0.4 1.2 0.9
0.5 1.2 0.9
0.6 1.2 0.9
0.7 1.2 0.9
0.8 1.2 0.9
0.9 1.2 0.9
1 1.2 0.9
1.1 1.2 0.9
1.2 1.2 0.9
1.3 1.2 0.9
1.4 1.2 0.9
1.5 1.2 0.9
1.6 1.2 0.9
1.7 1.2 0.9
1.8 1.2 0.9
1.9 1.2 0.9
-0.1 1.3 0.9
0 1.3 0.9
0.1 1.3 0.9
0.2 1.3 0.9
0.3 1.3 0.9
0.4 1.3 0.9
0.5 1.3 0.9
0.6 1.3 0.9
0.7 1.3 0.9
0.8 1.3 0.9
0.9 1.3 0.9
1 1.3 0.9
1.1 1.3 0.9
1.2 1.3 0.9
1.3 1.3 0.9
1.4 1.3 0.9
1.5 1.3 0.9
1.6 1.3 0.9
1.7 1.3 0.9
1.8 1.3 0.9
1.9 1.3 0.9
-0.1 1.4 0.9
0 1.4 0.9
0.1 1.4 0.9
0.2 1.4 0.9
0.3 1.4 0.9
0.4 1.4 0.9
0.5 1.4 0.9
0.6 1.4 0.9
0.7 1.4 0.9
0.8 1.4 0.9
0.9 1.4 0.9
1 1.4 0.9
1.1 1.4 0.9
1.2 1.4 0.9
1.3 1.4 0.9
1.4 1.4 0.9
1.5 1.4 0.9
1.6 1.4 0.9
1.7 1.4 0.9
1.8 1.4 0.9
1.9 1.4 0.9
-0.1 1.5 0.9
0 1.5 0.9
0.1 1.5 0.9
0.2 1.5 0.9
0.3 1.5 0.9
0.4 1.5 0.9
0.5 1.5 0.9
0.6 1.5 0.9
0.7 1.5 0.9
0.8 1.5 0.9
0.9 1.5 0.9
1 1.5 0.9
1.1 1.5 0.9
1.2 1.5 0.9
1.3 1.5 0.9
1.4 1.5 0.9
1.5 1.5 0.9
1.6 1.5 0.9
1.7 1.5 0.9
1.8 1.5 0.9
1.9 1.5 0.9
-0.1 1.6 0.9
0 1.6 0.9
0.1 1.6 0.9
0.2 1.6 0.9
0.3 1.6 0.9
0.4 1.6 0.9
0.5 1.6 0.9
0.6 1.6 0.9
0.7 1.6 0.9
0.8 1.6 0.9
0.9 1.6 0.9
1 1.6 0.9
1.1 1.6 0.9
1.2 1.6 0.9
1.3 1.6 0.9
1.4 1.6 0.9
1.5 1.6 0.9
1.6 1.6 0.9
1.7 1.6 0.9
1.8 1.6 0.9
1.9 1.6 0.9
-0.1 1.7 0.9
0 1.7 0.9
0.1 1.7 0.9
0.2 1.7 0.9
0.3 1.7 0.9
0.4 1.7 0.9
0.5 1.7 0.9
0.6 1.7 0.9
0.7 1.7 0.9
0.8 1.7 0.9
0.9 1.7 0.9
1 1.7 0.9
1.1 1.7 0.9
1.2 1.7 0.9
1.3 1.7 0.9
1.4 1.7 0.9
1.5 1.7 0.9
1.6 1.7 0.9
1.7 1.7 0.9
1.8 1.7 0.9
1.9 1.7 0.9
-0.1 1.8 0.9
0 1.8 0.9
0.1 1.8 0.9
0.2 1.8 0.9
0.3 1.8 0.9
0.4 1.8 0.9
0.5 1.8 0.9
0.6 1.8 0.9
0.7 1.8 0.9
0.8 1.8 0.9
0.9 1.8 0.9
1 1.8 0.9
1.1 1.8 0.9
1.2 1.8 0.9
1.3 1.8 0.9
1.4 1.8 0.9
1.5 1.8 0.9
1.6 1.8 0.9
1.7 1.8 0.9
1.8 1.8 0.9
1.9 1.8 0.9
-0.1 1.9 0.9
0 1.9 0.9
0.1 1.9 0.9
0.2 1.9 0.9
0.3 1.9 0.9
0.4 1.9 0.9
0.5 1.9 0.9
0.6 1.9 0.9
0.7 1.9 0.9
0.8 1.9 0.9
0.9 1.9 0.9
1 1.9 0.9
1.1 1.9 0.9
1.2 1.9 0.9
1.3 1.9 0.9
1.4 1.9 0.9
1.5 1.9 0.9
1.6 1.9 0.9
1.7 1.9 0.9
1.8 1.9 0.9
1.9 1.9 0.9
-0.1 -0.1 1
0 -0.1 1
0.1 -0.1 1
0.2 -0.1 1
0.3 -0.1 1
0.4 -0.1 1
0.5 -0.1 1
0.6 -0.1 1
0.7 -0.1 1
0.8 -0.1 1
0.9 -0.1 1
1 -0.1 1
1.1 -0.1 1
1.2 -0.1 1
1.3 -0.1 1
1.4 -0.1 1
1.5 -0.1 1
1.6 -0.1 1
1.7 -0.1 1
1.8 -0.1 1
1.9 -0.1 1
-0.1 0 1
0 0 1
0.1 0 1
0.2 0 1
0.3 0 1
0.4 0 1
0.5 0 1
0.6 0 1
0.7 0 1
0.8 0 1
0.9 0 1
1 0 1
1.1 0 1
1.2 0 1
1.3 0 1
1.4 0 1
1.5 0 1
1.6 0 1
1.7 0 1
1.8 0 1
1.9 0 1
-0.1 0.1 1
0 0.1 1
0.1 0.1 1
0.2 0.1 1
0.3 0.1 1
0.4 0.1 1
0.5 0.1 1
0.6 0.1 1
0.7 0.1 1
0.8 0.1 1
0.9 0.1 1
1 0.1 1
1.1 0.1 1
1.2 0.1 1
1.3 0.1 1
1.4 0.1 1
1.5 0.1 1
1.6 0.1 1
1.7 0.1 1
1.8 0.1 1
1.9 0.1 1
-0.1 0.2 1
0 0.2 1
0.1 0.2 1
0.2 0.2 1
0.3 0.2 1
0.4 0.2 1
0.5 0.2 1
0.6 0.2 1
0.7 0.2 1
0.8 0.2 1
0.9 0.2 1
1 0.2 1
1.1 0.2 1
1.2 0.2 1
1.3 0.2 1
1.4 0.2 1
1.5 0.2 1
1.6 0.2 1
1.7 0.2 1
1.8 0.2 1
1.9 0.2 1
-0.1 0.3 1
0 0.3 1
0.1 0.3 1
0.2 0.3 1
0.3 0.3 1
0.4 0.3 1
0.5 0.3 1
0.6 0.3 1
0.7 0.3 1
0.8 0.3 1
0.9 0.3 1
1 0.3 1
1.1 0.3 1
1.2 0.3 1
1.3 0.3 1
1.4 0.3 1
1.5 0.3 1
1.6 0.3 1
1.7 0.3 1
1.8 0.3 1
1.9 0.3 1
-0.1 0.4 1
0 0.4 1
0.1 0.4 1
0.2 0.4 1
0.3 0.4 1
0.4 0.4 1
0.5 0.4 1
0.6 0.4 1
0.7 0.4 1
0.8 0.4 1
0.9 0.4 1
1 0.4 1
1.1 0.4 1
1.2 0.4 1
1.3 0.4 1
1.4 0.4 1
1.5 0.4 1
1.6 0.4 1
1.7 0.4 1
1.8 0.4 1
1.9 0.4 1
-0.1 0.5 1
0 0.5 1
0.1 0.5 1
0.2 0.5 1
0.3 0.5 1
0.4 0.5 1
0.5 0.5 1
0.6 0.5 1
0.7 0.5 1
0.8 0.5 1
0.9 0.5 1
1 0.5 1
1.1 0.5 1
1.2 0.5 1
1.3 0.5 1
1.4 0.5 1
1.5 0.5 1
1.6 0.5 1
1.7 0.5 1
1.8 0.5 1
1.9 0.5 1
-0.1 0.6 1
0 0.6 1
0.1 0.6 1
0.2 0.6 1
0.3 0.6 1
0.4 0.6 1
0.5 0.6 1
0.6 0.6 1
0.7 0.6 1
0.8 0.6 1
0.9 0.6 1
1 0.6 1
1.1 0.6 1
1.2 0.6 1
1.3 0.6 1
1.4 0.6 1
1.5 0.6 1
1.6 0.6 1
1.7 0.6 1
1.8 0.6 1
1.9 0.6 1
-0.1 0.7 1
0 0.7 1
0.1 0.7 1
0.2 0.7 1
0.3 0.7 1
0.4 0.7 1
0.5 0.7 1
0.6 0.7 1
0.7 0.7 1
0.8 0.7 1
0.9 0.7 1
1 0.7 1
1.1 0.7 1
1.2 0.7 1
1.3 0.7 1
1.4 0.7 1
1.5 0.7 1
1.6 0.7 1
1.7 0.7 1
1.8 0.7 1
1.9 0.7 1
-0.1 0.8 1
0 0.8 1
0.1 0.8 1
0.2 0.8 1
0.3 0.8 1
0.4 0.8 1
0.5 0.8 1
0.6 0.8 1
0.7 0.8 1
0.8 0.8 1
0.9 0.8 1
1 0.8 1
1.1 0.8 1
1.2 0.8 1
1.3 0.8 1
1.4 0.8 1
1.5 0.8 1
1.6 0.8 1
1.7 0.8 1
1.8 0.8 1
1.9 0.8 1
-0.1 0.9 1
0 0.9 1
0.1 0.9 1
0.2 0.9 1
0.3 0.9 1
0.4 0.9 1
0.5 0.9 1
0.6 0.9 1
0.7 0.9 1
0.8 0.9 1
0.9 0.9 1
1 0.9 1
1.1 0.9 1
1.2 0.9 1
1.3 0.9 1
1.4 0.9 1
1.5 0.9 1
1.6 0.9 1
1.7 0.9 1
1.8 0.9 1
1.9 0.9 1
-0.1 1 1
0 1 1
0.1 1 1
0.2 1 1
0.3 1 1
0.4 1 1
0.5 1 1
0.6 1 1
0.7 1 1
0.8 1 1
0.9 1 1
1 1 1
1.1 1 1
1.2 1 1
1.3 1 1
1.4 1 1
1.5 1 1
1.6 1 1
1.7 1 1
1.8 1 1
1.9 1 1
-0.1 1.1 1
0 1.1 1
0.1 1.1 1
0.2 1.1 1
0.3 1.1 1
0.4 1.1 1
0.5 1.1 1
0.6 1.1 1
0.7 1.1 1
0.8 1.1 1
0.9 1.1 1
1 1.1 1
1.1 1.1 1
1.2 1.1 1
1.3 1.1 1
1.4 1.1 1
1.5 1.1 1
1.6 1.1 1
1.7 1.1 1
1.8 1.1 1
1.9 1.1 1
-0.1 1.2 1
0 1.2 1
0.1 1.2 1
0.2 1.2 1
0.3 1.2 1
0.4 1.2 1
0.5 1.2 1
0.6 1.2 1
0.7 1.2 1
0.8 1.2 1
0.9 1.2 1
1 1.2 1
1.1 1.2 1
1.2 1.2 1
1.3 1.2 1
1.4 1.2 1
1.5 1.2 1
1.6 1.2 1
1.7 1.2 1
1.8 1.2 1
1.9 1.2 1
-0.1 1.3 1
0 1.3 1
0.1 1.3 1
0.2 1.3 1
0.3 1.3 1
0.4 1.3 1
0.5 1.3 1
0.6 1.3 1
0.7 1.3 1
0.8 1.3 1
0.9 1.3 1
1 1.3 1
1.1 1.3 1
1.2 1.3 1
1.3 1.3 1
1.4 1.3 1
1.5 1.3 1
1.6 1.3 1
1.7 1.3 1
1.8 1.3 1
1.9 1.3 1
-0.1 1.4 1
0 1.4 1
0.1 1.4 1
0.2 1.4 1
0.3 1.4 1
0.4 1.4 1
0.5 1.4 1
0.6 1.4 1
0.7 1.4 1
0.8 1.4 1
0.9 1.4 1
1 1.4 1
1.1 1.4 1
1.2 1.4 1
1.3 1.4 1
1.4 1.4 1
1.5 1.4 1
1.6 1.4 1
1.7 1.4 1
1.8 1.4 1
1.9 1.4 1
-0.1 1.5 1
0 1.5 1
0.1 1.5 1
0.2 1.5 1
0.3 1.5 1
0.4 1.5 1
0.5 1.5 1
0.6 1.5 1
0.7 1.5 1
0.8 1.5 1
0.9 1.5 1
1 1.5 1
1.1 1.5 1
1.2 1.5 1
1.3 1.5 1
1.4 1.5 1
1.5 1.5 1
1.6 1.5 1
1.7 1.5 1
1.8 1.5 1
1.9 1.5 1
-0.1 1.6 1
0 1.6 1
0.1 1.6 1
0.2 1.6 1
0.3 1.6 1
0.4 1.6 1
0.5 1.6 1
0.6 1.6 1
0.7 1.6 1
0.8 1.6 1
0.9 1.6 1
1 1.6 1
1.1 1.6 1
1.2 1.6 1
1.3 1.6 1
1.4 1.6 1
1.5 1.6 1
1.6 1.6 1
1.7 1.6 1
1.8 1.6 1
1.9 1.6 1
-0.1 1.7 1
0 1.7 1
0.1 1.7 1
0.2 1.7 1
0.3 1.7 1
0.4 1.7 1
0.5 1.7 1
0.6 1.7 1
0.7 1.7 1
0.8 1.7 1
0.9 1.7 1
1 1.7 1
1.1 1.7 1
1.2 1.7 1
1.3 1.7 1
1.4 1.7 1
1.5 1.7 1
1.6 1.7 1
1.7 1.7 1
1.8 1.7 1
1.9 1.7 1
-0.1 1.8 1
0 1.8 1
0.1 1.8 1
0.2 1.8 1
0.3 1.8 1
0.4 1.8 1
0.5 1.8 1
0.6 1.8 1
0.7 1.8 1
0.8 1.8 1
0.9 1.8 1
1 1.8 1
1.1 1.8 1
1.2 1.8 1
1.3 1.8 1
1.4 1.8 1
1.5 1.8 1
1.6 1.8 1
1.7 1.8 1
1.8 1.8 1
1.9 1.8 1
-0.1 1.9 1
0 1.9 1
0.1 1.9 1
0.2 1.9 1
0.3 1.9 1
0.4 1.9 1
0.5 1.9 1
0.6 1.9 1
0.7 1.9 1
0.8 1.9 1
0.9 1.9 1
1 1.9 1
1.1 1.9 1
1.2 1.9 1
1.3 1.9 1
1.4 1.9 1
1.5 1.9 1
1.6 1.9 1
1.7 1.9 1
1.8 1.9 1
1.9 1.9 1
-0.1 -0.1 1.1
0 -0.1 1.1
0.1 -0.1 1.1
0.2 -0.1 1.1
0.3 -0.1 1.1
0.4 -0.1 1.1
0.5 -0.1 1.1
0.6 -0.1 1.1
0.7 -0.1 1.1
0.8 -0.1 1.1
0.9 -0.1 1.1
1 -0.1 1.1
1.1 -0.1 1.1
1.2 -0.1 1.1
1.3 -0.1 1.1
1.4 -0.1 1.1
1.5 -0.1 1.1
1.6 -0.1 1.1
1.7 -0.1 1.1
1.8 -0.1 1.1
1.9 -0.1 1.1
-0.1 0 1.1
0 0 1.1
0.1 0 1.1
0.2 0 1.1
0.3 0 1.1
0.4 0 1.1
0.5 0 1.1
0.6 0 1.1
0.7 0 1.1
0.8 0 1.1
0.9 0 1.1
1 0 1.1
1.1 0 1.1
1.2 0 1.1
1.3 0 1.1
1.4 0 1.1
1.5 0 1.1
[...]
CELL_DATA 4000
VECTORS velocity double 
-5.5046e-07 -0.000179723 0.00325273
-8.36911e-06 -0.000213484 0.00434539
-2.43434e-05 -0.000229898 0.004471
-3.96061e-05 -0.000239748 0.00449066
-5.35062e-05 -0.000244118 0.00450533
-6.70555e-05 -0.000245757 0.00450716
-8.05367e-05 -0.000246424 0.00449032
-9.32814e-05 -0.000246858 0.00445524
-0.000104162 -0.000247243 0.00440399
-0.000111788 -0.000247484 0.00433849
-0.000114801 -0.000247378 0.00426098
-0.00011209 -0.000246617 0.00417439
-0.000103072 -0.0002448 0.0040828
-8.80774e-05 -0.000241415 0.00399162
-6.89159e-05 -0.000236002 0.00390755
-4.95156e-05 -0.000228001 0.00383987
-3.68393e-05 -0.000217015 0.0038055
-4.05772e-05 -0.000203218 0.00382428
-6.3012e-05 -0.000188546 0.00380692
-3.1506e-05 -0.000156827 0.00292206
-5.3014e-06 -0.000524147 0.00423246
-3.28609e-05 -0.000662625 0.00550232
-6.59865e-05 -0.000713366 0.00546139
-9.37249e-05 -0.000740192 0.00539499
-0.000117339 -0.000752187 0.00539104
-0.00013932 -0.000756867 0.00539055
-0.00016055 -0.000758706 0.00536631
-0.000180388 -0.000759646 0.00531418
-0.000197377 -0.000760228 0.00523632
-0.00020962 -0.000760266 0.0051356
-0.000215089 -0.000759202 0.00501536
-0.000211914 -0.000756239 0.00488008
-0.00019871 -0.00075037 0.00473603
-0.000175229 -0.000740413 0.00459158
-0.000142875 -0.000725182 0.00445793
-0.000105811 -0.000703471 0.00435415
-7.26145e-05 -0.000674429 0.00432452
-5.87526e-05 -0.000638436 0.00444995
-7.53421e-05 -0.000596336 0.00467198
-3.7671e-05 -0.000484142 0.00376697
-3.6564e-05 -0.00101024 0.00400152
-9.21415e-05 -0.00131321 0.00469001
-0.000140727 -0.00141184 0.00435691
-0.000174906 -0.00146057 0.00419353
-0.000200448 -0.00148247 0.0041702
-0.000222504 -0.00149127 0.00416967
-0.000243094 -0.00149475 0.00414572
-0.000261875 -0.00149631 0.00408994
-0.000277229 -0.00149696 0.00400394
-0.000286866 -0.00149641 0.00389072
-0.000288249 -0.00149374 0.00375389
-0.000278915 -0.00148754 0.0035985
-0.000256827 -0.00147603 0.00343179
-0.000221133 -0.00145724 0.00326364
-0.000172739 -0.0014291 0.00310772
-0.000115583 -0.00138986 0.00298959
-5.90393e-05 -0.0013383 0.0029747
-2.25935e-05 -0.00127524 0.00320636
-2.95542e-05 -0.00119674 0.00375339
-1.47771e-05 -0.000954242 0.00349511
-8.041e-05 -0.00161681 0.00334544
-0.000171834 -0.00214468 0.00317112
-0.000238548 -0.00230605 0.00250646
-0.000278885 -0.00238203 0.00225056
-0.000304537 -0.00241631 0.00221156
-0.00032409 -0.00243045 0.0022127
-0.000341087 -0.0024362 0.00219104
-0.000355651 -0.0024387 0.00213456
-0.000366068 -0.00243953 0.0020443
-0.000369663 -0.00243832 0.00192329
-0.000363318 -0.00243369 0.00177517
-0.000343877 -0.00242353 0.00160526
-0.00030861 -0.0024052 0.00142171
-0.000255952 -0.00237573 0.00123582
-0.000186521 -0.00233213 0.00106361
-0.000104204 -0.00227178 0.000935783
-1.98662e-05 -0.00219347 0.000935684
4.21704e-05 -0.0020978 0.00126741
4.3312e-05 -0.00197161 0.0021675
2.1656e-05 -0.0015444 0.00281401
-0.000135064 -0.00232884 0.00225924
-0.000270667 -0.0031449 0.000934562
-0.000359131 -0.00338632 -0.000130313
-0.000406269 -0.00349579 -0.000491937
-0.000431192 -0.00354525 -0.000549035
-0.000446754 -0.00356613 -0.00054652
-0.000458384 -0.00357493 -0.000565413
-0.00046683 -0.00357886 -0.000621681
-0.000470277 -0.00358015 -0.000715024
-0.000465623 -0.00357841 -0.000842573
-0.000449033 -0.00357178 -0.00100047
-0.000416542 -0.00355736 -0.00118314
-0.000364562 -0.0035314 -0.00138165
-0.00029073 -0.00348972 -0.00158301
-0.000195173 -0.00342818 -0.00176874
-8.22584e-05 -0.00334322 -0.00190265
3.55993e-05 -0.00323309 -0.00188322
0.000127543 -0.00309804 -0.00143796
0.000136571 -0.00290931 -0.000120473
6.82855e-05 -0.00223925 0.00170942
-0.000202554 -0.00312022 0.000593007
-0.000392225 -0.00428661 -0.00227047
-0.000506826 -0.00462708 -0.00384834
-0.000561622 -0.0047768 -0.00434612
-0.000584985 -0.00484435 -0.00442942
-0.000595024 -0.00487339 -0.0044277
-0.000599494 -0.00488606 -0.00444418
-0.000599904 -0.00489202 -0.0044997
-0.000594426 -0.0048943 -0.00459504
-0.00057948 -0.00489249 -0.00472771
-0.000550395 -0.00488425 -0.00489381
-0.000502114 -0.00486575 -0.00508728
-0.000429939 -0.00483197 -0.00529829
-0.000330551 -0.00477722 -0.00551214
-0.00020343 -0.00469573 -0.00570751
-5.31447e-05 -0.00458267 -0.00584217
0.000105448 -0.00443556 -0.00579265
0.000234033 -0.00425286 -0.00520412
0.000252282 -0.00398444 -0.00336073
0.000126141 -0.00301374 3.29506e-05
-0.00028452 -0.00394122 -0.00182122
-0.000539383 -0.00551183 -0.00671518
-0.000684957 -0.00597027 -0.00895374
-0.000748311 -0.00616667 -0.00962968
-0.000769153 -0.00625479 -0.0097512
-0.000771987 -0.00629323 -0.00975388
-0.000767416 -0.00631061 -0.0097689
-0.000757887 -0.00631929 -0.00982345
-0.000741565 -0.00632326 -0.00991961
-0.000714374 -0.00632219 -0.0100554
-0.000670704 -0.00631321 -0.0102271
-0.00060412 -0.00629154 -0.0104281
-0.000508482 -0.0062507 -0.0106475
-0.000379076 -0.00618311 -0.010869
-0.00021448 -0.00608094 -0.011068
-1.93773e-05 -0.00593734 -0.0111949
0.000188922 -0.00574842 -0.0111006
0.000362347 -0.00550973 -0.0103278
0.000392449 -0.00514292 -0.0078182
0.000196225 -0.00382031 -0.00238074
-0.000381204 -0.00470909 -0.00514556
-0.000712445 -0.00671905 -0.0126544
-0.000893648 -0.00731162 -0.0157304
-0.000966218 -0.00755963 -0.0166359
-0.000983487 -0.00766985 -0.0168108
-0.000977454 -0.00771822 -0.0168229
-0.000961987 -0.00774074 -0.0168381
-0.000940752 -0.00775279 -0.0168918
-0.00091197 -0.00775935 -0.0169875
-0.000870984 -0.00776026 -0.0171239
-0.000811167 -0.00775215 -0.0172975
-0.00072452 -0.00772924 -0.0175014
-0.000602966 -0.00768358 -0.0177237
-0.000439896 -0.00760534 -0.0179458
-0.000232295 -0.00748388 -0.0181399
1.53551e-05 -0.00730964 -0.0182481
0.000282924 -0.00707596 -0.01809
0.000510889 -0.00677376 -0.0170833
0.000556436 -0.00629024 -0.0137404
0.000278218 -0.0045793 -0.00569057
-0.000490593 -0.00530099 -0.0095117
-0.000907729 -0.00775245 -0.0202944
-0.00112821 -0.0084888 -0.024409
-0.00121015 -0.00878997 -0.0256034
-0.00122255 -0.00892168 -0.0258496
-0.00120603 -0.00897952 -0.0258771
-0.00117817 -0.00900714 -0.0258945
-0.00114397 -0.00902301 -0.0259474
-0.00110185 -0.00903313 -0.0260417
-0.00104649 -0.00903756 -0.0261759
-0.000970142 -0.00903269 -0.0263472
-0.000863175 -0.00901189 -0.0265485
-0.000715104 -0.0089657 -0.0267667
-0.000516547 -0.00888181 -0.0269811
-0.000262257 -0.00874622 -0.02716
4.45831e-05 -0.00854511 -0.0272362
0.000380788 -0.00826779 -0.0269921
0.00067372 -0.00789723 -0.0256941
0.000739512 -0.00728169 -0.021328
0.000369756 -0.00517202 -0.010026
-0.000607324 -0.00555132 -0.014983
-0.00111564 -0.00839586 -0.0297352
-0.00137654 -0.00927377 -0.0351042
-0.00146697 -0.00962396 -0.0366514
-0.00147323 -0.00977338 -0.0369878
-0.00144507 -0.00983839 -0.0370372
-0.00140401 -0.00987015 -0.0370591
-0.00135646 -0.00988982 -0.0371114
-0.00130121 -0.00990435 -0.0372029
-0.00123244 -0.0099141 -0.0373327
-0.00114129 -0.0099155 -0.0374976
-0.00101631 -0.00990161 -0.0376906
-0.00084423 -0.00986164 -0.0378975
-0.000612179 -0.0097809 -0.0380957
-0.000311029 -0.00964136 -0.0382494
5.82038e-05 -0.00942382 -0.0382804
0.00047068 -0.00911045 -0.0379273
0.000838358 -0.00867302 -0.0362759
0.000930782 -0.00791675 -0.0306819
0.000465391 -0.00543842 -0.0154512
-0.000721391 -0.00525791 -0.0215048
-0.001318 -0.00837647 -0.0408935
-0.00161612 -0.00937524 -0.047729
-0.00171252 -0.00976124 -0.0496909
-0.00171129 -0.00991982 -0.0501347
-0.00167119 -0.00998737 -0.0502115
-0.0016174 -0.0100211 -0.0502401
-0.00155766 -0.0100438 -0.0502919
-0.00149119 -0.0100632 -0.0503794
-0.00141208 -0.0100799 -0.0505026
-0.00131067 -0.010091 -0.050658
-0.00117369 -0.0100899 -0.0508384
-0.000984915 -0.0100653 -0.051029
-0.000727063 -0.0100007 -0.0512052
-0.000385756 -0.00987406 -0.0513272
4.29677e-05 -0.00965924 -0.0513045
0.000533935 -0.00932825 -0.0508232
0.000983705 -0.00883585 -0.0487582
0.00111046 -0.00794229 -0.0417313
0.000555232 -0.00518152 -0.0219166
-0.000816597 -0.00420269 -0.0288541
-0.00148539 -0.00738552 -0.0534229
-0.00181027 -0.00845734 -0.0619051
-0.00190761 -0.00885361 -0.0643314
-0.00189767 -0.00900678 -0.0648929
-0.00184663 -0.00906939 -0.0649987
-0.00178246 -0.00910157 -0.0650347
-0.00171384 -0.00912587 -0.0650864
-0.00164048 -0.00914974 -0.0651693
-0.00155686 -0.0091745 -0.0652844
-0.00145307 -0.00919836 -0.0654288
-0.00131464 -0.00921596 -0.0655951
-0.00112272 -0.00921722 -0.0657685
-0.000855096 -0.00918521 -0.0659235
-0.000490238 -0.00909502 -0.0660164
-1.6212e-05 -0.008913 -0.0659424
0.000545566 -0.00859756 -0.0653266
0.00107854 -0.00807889 -0.0627998
0.00124844 -0.00707169 -0.0541577
0.000624219 -0.00418709 -0.0292101
-0.000868933 -0.00219364 -0.0366067
-0.00157358 -0.00512342 -0.0666586
-0.00190448 -0.00618395 -0.0768973
-0.00199438 -0.006549 -0.0798117
-0.00197484 -0.00667548 -0.0804896
-0.00191583 -0.00672303 -0.0806197
-0.00184611 -0.00674889 -0.0806604
-0.00177459 -0.00677234 -0.080711
-0.00170145 -0.00679945 -0.0807889
-0.00162215 -0.00683211 -0.0808958
-0.00152744 -0.0068702 -0.0810299
-0.00140303 -0.00691111 -0.0811848
-0.00122835 -0.00694776 -0.0813471
-0.000976994 -0.00696586 -0.0814918
-0.00061896 -0.00694009 -0.0815731
-0.000130648 -0.00683138 -0.0814702
0.000476931 -0.00658241 -0.0807375
0.00108152 -0.00609062 -0.0777294
0.0013028 -0.00502583 -0.0673448
0.000651401 -0.00226368 -0.0369262
-0.000844044 0.000867875 -0.0441363
-0.00151982 -0.00137705 -0.0795989
-0.00182218 -0.00229524 -0.0915801
-0.00189244 -0.00256934 -0.0949613
-0.00186333 -0.00264203 -0.0957365
-0.001802 -0.00266291 -0.0958788
-0.00173468 -0.00267711 -0.0959174
-0.00166932 -0.00269657 -0.095964
-0.00160658 -0.00272451 -0.0960361
-0.00154327 -0.00276308 -0.0961359
-0.00147226 -0.00281423 -0.0962628
-0.00138113 -0.00287932 -0.0964135
-0.00125032 -0.0029566 -0.0965782
-0.001051 -0.00303783 -0.0967361
-0.000745985 -0.00310315 -0.0968418
-0.000296995 -0.00311329 -0.0967599
0.000304009 -0.00299833 -0.0959644
0.000944279 -0.00261807 -0.0925064
0.00121882 -0.00160056 -0.0803567
0.000609409 0.000695691 -0.0444629
-0.000694884 0.00489358 -0.0505981
-0.00123884 0.00387495 -0.0907171
-0.00146165 0.00328398 -0.104165
-0.00149667 0.00317676 -0.1079
-0.0014598 0.00318738 -0.108723
-0.0014051 0.003204 -0.108856
-0.00135171 0.00320616 -0.108883
-0.00130499 0.00319395 -0.108921
-0.00126579 0.00316841 -0.108986
-0.00123269 0.00312793 -0.10908
-0.0012019 0.00306826 -0.109206
-0.00116522 0.00298381 -0.109363
-0.00110739 0.00286911 -0.10955
-0.0010025 0.00272244 -0.109755
-0.000810352 0.00255161 -0.109939
-0.000479924 0.00238487 -0.109958
2.34352e-05 0.00229267 -0.109203
0.000620759 0.0024449 -0.105426
0.000931727 0.0032421 -0.09173
0.000465863 0.0046235 -0.050994
-0.000357335 0.0094756 -0.0545607
-0.000622956 0.0102938 -0.0969357
-0.000700918 0.010261 -0.110846
-0.000684651 0.0104009 -0.114578
-0.000645553 0.0105188 -0.115335
-0.000610882 0.0105794 -0.115421
-0.000587321 0.0106005 -0.115423
-0.000575872 0.0105982 -0.115446
-0.000576763 0.010579 -0.115503
-0.000590588 0.0105421 -0.115593
-0.000617348 0.0104821 -0.115721
-0.000655152 0.0103894 -0.115894
-0.000696989 0.0102517 -0.116121
-0.000726417 0.0100551 -0.116405
-0.000710751 0.00978927 -0.116726
-0.000596666 0.00945776 -0.116942
-0.00032551 0.00910702 -0.116409
8.56624e-05 0.00890351 -0.112697
0.000369734 0.00922915 -0.098402
0.000184867 0.00914736 -0.0550918
0.000248434 0.0136985 -0.0520447
0.000441168 0.0168947 -0.0893986
0.000571298 0.0176386 -0.100776
0.000643488 0.0180761 -0.10353
0.000668472 0.0183051 -0.103953
0.000660662 0.018407 -0.103928
0.000630705 0.0184463 -0.103889
0.00058364 0.0184554 -0.103893
0.00052055 0.0184461 -0.10394
0.000439586 0.018419 -0.104025
0.000337107 0.0183685 -0.104156
0.000208692 0.0182834 -0.104346
5.02892e-05 0.0181466 -0.104616
-0.000137602 0.017935 -0.104989
-0.000343742 0.017619 -0.105476
-0.000535982 0.0171683 -0.105985
-0.00065677 0.0165767 -0.105979
-0.000653396 0.0159431 -0.103338
-0.000551533 0.0155158 -0.0914171
-0.000275766 0.0133898 -0.0527412
0.00115224 0.0159189 -0.0294538
0.00194819 0.0215743 -0.042431
0.00230145 0.0231241 -0.0446717
0.00239721 0.0238119 -0.0445828
0.00236576 0.0241166 -0.0442234
0.00227399 0.0242434 -0.0439963
0.00215208 0.0242952 -0.0439003
0.00201222 0.024315 -0.0438841
0.00185722 0.0243172 -0.0439177
0.00168529 0.024304 -0.043994
0.00149092 0.0242708 -0.0441192
0.00126479 0.0242075 -0.0443104
0.000993774 0.0240976 -0.0445965
0.000659947 0.0239151 -0.0450188
0.000242503 0.0236207 -0.0456302
-0.000276485 0.0231578 -0.0464634
-0.00089487 0.0224602 -0.0473917
-0.00153946 0.0214982 -0.0476908
-0.00188038 0.0202057 -0.0448295
-0.000940191 0.0157022 -0.030275
0.00210649 0.0138145 0.0605233
0.00340469 0.0203267 0.110218
0.00383881 0.0220612 0.124618
0.00383536 0.0227305 0.128708
0.00365346 0.0230066 0.129961
0.00340854 0.0231197 0.130373
0.0031462 0.0231683 0.130509
0.0028824 0.0231905 0.13054
0.0026205 0.0231991 0.13052
0.00235804 0.0231966 0.130461
0.00208845 0.0231806 0.13036
0.00180073 0.0231444 0.130202
0.00147684 0.0230764 0.129962
0.00108743 0.0229573 0.129593
0.000584293 0.022755 0.129014
-0.000108564 0.0224173 0.128053
-0.00109156 0.0218655 0.126249
-0.00238079 0.0209939 0.121906
-0.00335035 0.0194287 0.107992
-0.00167518 0.0136767 0.0596571
0.00175926 0.00690725 0.389557
0.00277037 0.0101634 0.528651
0.00294546 0.0110306 0.552767
0.00274082 0.0113652 0.557371
0.00242673 0.0115033 0.55843
0.00211043 0.0115599 0.558723
0.00182501 0.0115841 0.558811
0.0015754 0.0115952 0.55883
0.00135712 0.0115995 0.558817
0.0011628 0.0115983 0.55878
0.000983685 0.0115903 0.55872
0.000809507 0.0115722 0.558629
0.000625728 0.0115382 0.558494
0.000408741 0.0114787 0.558291
0.000116509 0.0113775 0.557964
-0.000327389 0.0112086 0.557368
-0.00104384 0.0109327 0.55599
-0.0020962 0.0104969 0.551222
-0.00290298 0.00971433 0.527333
-0.00145149 0.00683833 0.388769
1.38152e-05 -0.000114465 0.00352182
2.12053e-05 -0.000131816 0.00472088
1.57486e-05 -0.000140191 0.00486439
4.9846e-06 -0.000145616 0.00489025
-9.22421e-06 -0.000147918 0.00490963
-2.65306e-05 -0.000148769 0.00491473
-4.62832e-05 -0.000149309 0.0048997
-6.72644e-05 -0.00015 0.00486534
-8.80027e-05 -0.00015095 0.00481373
-0.000106838 -0.000152102 0.0047467
-0.000122037 -0.000153275 0.00466614
-0.000131908 -0.000154177 0.00457472
-0.000134914 -0.000154384 0.00447647
-0.000130364 -0.000153398 0.00437703
-0.000118997 -0.000150645 0.00428382
-0.000103632 -0.000145552 0.00420758
-9.03947e-05 -0.000137864 0.0041673
-8.74291e-05 -0.000127715 0.00418492
-9.69647e-05 -0.000116685 0.00416171
-4.84824e-05 -9.24747e-05 0.00319169
1.7666e-05 -0.000364012 0.00467059
1.66051e-05 -0.000453191 0.00612099
2.67855e-06 -0.000483049 0.00610246
-1.48412e-05 -0.000498657 0.00604221
-3.54055e-05 -0.000505126 0.00604439
-5.96082e-05 -0.000507371 0.0060485
-8.71119e-05 -0.000508476 0.00602661
-0.000116625 -0.000509766 0.00597488
-0.000146354 -0.000511578 0.00589555
-0.000174093 -0.000513749 0.00579139
-0.000197365 -0.000515805 0.00566532
-0.000213554 -0.000517039 0.00552147
-0.000220119 -0.000516425 0.0053661
-0.000215361 -0.000512716 0.00520784
-0.000199229 -0.000504512 0.00505894
-0.000174503 -0.000490465 0.0049409
-0.000148344 -0.000469848 0.00490208
-0.000133126 -0.000443544 0.00502865
-0.000134428 -0.000412769 0.00524815
-6.7214e-05 -0.000330917 0.00419675
4.66769e-08 -0.000761671 0.00457281
-1.80718e-05 -0.000976386 0.00546355
-4.1874e-05 -0.00103974 0.0051486
-6.38472e-05 -0.00106974 0.00499087
-8.63348e-05 -0.00108213 0.00497511
-0.000111695 -0.00108644 0.00498039
-0.000140318 -0.00108829 0.00495939
-0.000171066 -0.00109007 0.00490403
-0.000201993 -0.00109247 0.00481609
-0.00023056 -0.00109526 0.00469838
-0.000253842 -0.00109766 0.00455402
-0.000268589 -0.00109842 0.00438763
-0.000271512 -0.00109576 0.00420628
-0.000260128 -0.00108756 0.00402018
-0.000233686 -0.00107143 0.00384427
-0.000194696 -0.00104528 0.00370694
-0.000151435 -0.00100803 0.00367949
-0.00011951 -0.000961074 0.00391406
-0.000112682 -0.000902848 0.00446825
-5.63409e-05 -0.00071922 0.00405125
-2.83012e-05 -0.00131595 0.00407403
-7.03614e-05 -0.00171873 0.00411961
-0.00010668 -0.00183007 0.00346961
-0.000133399 -0.0018797 0.00322034
-0.00015689 -0.00190029 0.00319117
-0.000181913 -0.00190769 0.00319983
-0.000209785 -0.00191064 0.00318203
-0.000239671 -0.00191301 0.00312619
-0.0002695 -0.00191588 0.00303365
-0.000296411 -0.00191897 0.00290716
-0.000316918 -0.00192114 0.0027498
-0.000326997 -0.00192052 0.00256633
-0.000322575 -0.00191455 0.00236453
-0.000300254 -0.00189998 0.00215605
-0.000258726 -0.00187334 0.00195837
-0.000200411 -0.0018315 0.00180564
-0.000135005 -0.00177329 0.00178843
-8.27791e-05 -0.00170033 0.00212345
-6.85186e-05 -0.00160376 0.00304041
-3.42593e-05 -0.00126248 0.00352043
-6.6548e-05 -0.00203833 0.00316602
-0.000140137 -0.00270324 0.00207578
-0.000192356 -0.00288079 0.00102077
-0.000224563 -0.00295663 0.000667091
-0.000248549 -0.00298837 0.000622602
-0.000272079 -0.0030002 0.000634657
-0.000297867 -0.0030049 0.000620682
-0.000325394 -0.00300803 0.000565395
-0.000352517 -0.00301132 0.000469493
-0.000375962 -0.00301441 0.000335498
-0.000391603 -0.00301584 0.000166518
-0.000394632 -0.00301302 -3.26199e-05
-0.000379842 -0.00300237 -0.000253443
-0.000342868 -0.00297943 -0.000482723
-0.000281586 -0.00293935 -0.000700301
-0.000198756 -0.00287793 -0.000865867
-0.000105777 -0.00279332 -0.000868851
-2.87953e-05 -0.00268723 -0.000420108
-6.85933e-06 -0.00253735 0.000926259
-3.42967e-06 -0.00197119 0.00258634
-0.000117068 -0.00292987 0.00168261
-0.000231513 -0.00394025 -0.000943329
-0.000303942 -0.00420591 -0.00251989
-0.00034268 -0.00431572 -0.00300888
-0.000366578 -0.00436202 -0.00307668
-0.000387357 -0.00437987 -0.0030632
-0.000409394 -0.00438709 -0.0030735
-0.000432776 -0.00439139 -0.00312758
-0.000455258 -0.0043952 -0.00322568
-0.000473208 -0.00439822 -0.0033657
-0.000481742 -0.00439853 -0.00354467
-0.000474984 -0.00439284 -0.00375757
-0.000446529 -0.00437639 -0.00399527
-0.000390697 -0.00434321 -0.0042429
-0.00030448 -0.00428676 -0.00447717
-0.000190548 -0.0042012 -0.00465091
-6.2943e-05 -0.00408415 -0.00462969
4.49977e-05 -0.00393599 -0.00403665
7.57301e-05 -0.00371415 -0.00214815
3.78651e-05 -0.00284664 0.00108457
-0.000182194 -0.00396921 -0.000567275
-0.000348783 -0.00541303 -0.00524038
-0.000446519 -0.00579126 -0.0074925
-0.00049306 -0.00594351 -0.00816035
-0.000516165 -0.00600786 -0.00826363
-0.000532662 -0.00603349 -0.00825229
-0.000549095 -0.00604412 -0.00825983
-0.000566252 -0.00605008 -0.00831234
-0.000581906 -0.00605469 -0.00841131
-0.000591985 -0.00605774 -0.00855521
-0.000590854 -0.00605692 -0.00874143
-0.000571374 -0.00604812 -0.00896469
-0.000525595 -0.00602523 -0.0092152
-0.000446186 -0.00598047 -0.00947643
-0.000328756 -0.00590521 -0.0097217
-0.000176207 -0.00579153 -0.00989568
-5.12743e-06 -0.0056356 -0.00983544
0.000141569 -0.00543545 -0.00905551
0.000183039 -0.00511943 -0.00647755
9.15195e-05 -0.00386879 -0.00117246
-0.000263548 -0.00510109 -0.00377717
-0.00049454 -0.00706208 -0.0111131
-0.000623156 -0.00757836 -0.0142266
-0.0006787 -0.00778119 -0.0151273
-0.000700334 -0.00786678 -0.0152821
-0.000710861 -0.00790156 -0.0152781
-0.000719604 -0.00791646 -0.0152845
-0.000728314 -0.00792467 -0.0153355
-0.00073484 -0.00793054 -0.0154339
-0.000734684 -0.00793408 -0.0155788
-0.000721373 -0.00793264 -0.0157682
-0.000686323 -0.0079212 -0.0159968
-0.000619657 -0.00789229 -0.0162539
-0.000511981 -0.007836 -0.0165213
-0.000357042 -0.0077409 -0.0167687
-0.000157392 -0.00759637 -0.0169315
6.70773e-05 -0.00739602 -0.0168125
0.000261998 -0.00713353 -0.0157934
0.000317307 -0.00669855 -0.0123499
0.000158653 -0.00498495 -0.00437437
-0.000360987 -0.00622348 -0.00812148
-0.000668624 -0.00876791 -0.0188233
-0.000833239 -0.00944512 -0.0230119
-0.000898812 -0.00970477 -0.0242089
-0.000917936 -0.00981336 -0.0244346
-0.000920816 -0.00985801 -0.0244447
-0.000919852 -0.0098777 -0.0244523
-0.000917993 -0.00988872 -0.0245019
-0.000913328 -0.00989652 -0.0245983
-0.00090097 -0.0099014 -0.0247411
-0.000873522 -0.00990051 -0.0249287