# vtk DataFile Version 2.0 
Visualization 
ASCII 
DATASET STRUCTURED_GRID 
DIMENSIONS 21 21 11
POINTS 4851 float
-0.1 -0.1 -0.1
0 -0.1 -0.1
0.1 -0.1 -0.1
0.2 -0.1 -0.1
0.3 -0.1 -0.1
0.4 -0.1 -0.1
0.5 -0.1 -0.1
0.6 -0.1 -0.1
0.7 -0.1 -0.1
0.8 -0.1 -0.1
0.9 -0.1 -0.1
1 -0.1 -0.1
1.1 -0.1 -0.1
1.2 -0.1 -0.1
1.3 -0.1 -0.1
1.4 -0.1 -0.1
1.5 -0.1 -0.1
1.6 -0.1 -0.1
1.7 -0.1 -0.1
1.8 -0.1 -0.1
1.9 -0.1 -0.1
-0.1 0 -0.1
0 0 -0.1
0.1 0 -0.1
0.2 0 -0.1
0.3 0 -0.1
0.4 0 -0.1
0.5 0 -0.1
0.6 0 -0.1
0.7 0 -0.1
0.8 0 -0.1
0.9 0 -0.1
1 0 -0.1
1.1 0 -0.1
1.2 0 -0.1
1.3 0 -0.1
1.4 0 -0.1
1.5 0 -0.1
1.6 0 -0.1
1.7 0 -0.1
1.8 0 -0.1
1.9 0 -0.1
-0.1 0.1 -0.1
0 0.1 -0.1
0.1 0.1 -0.1
0.2 0.1 -0.1
0.3 0.1 -0.1
0.4 0.1 -0.1
0.5 0.1 -0.1
0.6 0.1 -0.1
0.7 0.1 -0.1
0.8 0.1 -0.1
0.9 0.1 -0.1
1 0.1 -0.1
1.1 0.1 -0.1
1.2 0.1 -0.1
1.3 0.1 -0.1
1.4 0.1 -0.1
1.5 0.1 -0.1
1.6 0.1 -0.1
1.7 0.1 -0.1
1.8 0.1 -0.1
1.9 0.1 -0.1
-0.1 0.2 -0.1
0 0.2 -0.1
0.1 0.2 -0.1
0.2 0.2 -0.1
0.3 0.2 -0.1
0.4 0.2 -0.1
0.5 0.2 -0.1
0.6 0.2 -0.1
0.7 0.2 -0.1
0.8 0.2 -0.1
0.9 0.2 -0.1
1 0.2 -0.1
1.1 0.2 -0.1
1.2 0.2 -0.1
1.3 0.2 -0.1
1.4 0.2 -0.1
1.5 0.2 -0.1
1.6 0.2 -0.1
1.7 0.2 -0.1
1.8 0.2 -0.1
1.9 0.2 -0.1
-0.1 0.3 -0.1
0 0.3 -0.1
0.1 0.3 -0.1
0.2 0.3 -0.1
0.3 0.3 -0.1
0.4 0.3 -0.1
0.5 0.3 -0.1
0.6 0.3 -0.1
0.7 0.3 -0.1
0.8 0.3 -0.1
0.9 0.3 -0.1
1 0.3 -0.1
1.1 0.3 -0.1
1.2 0.3 -0.1
1.3 0.3 -0.1
1.4 0.3 -0.1
1.5 0.3 -0.1
1.6 0.3 -0.1
1.7 0.3 -0.1
1.8 0.3 -0.1
1.9 0.3 -0.1
-0.1 0.4 -0.1
0 0.4 -0.1
0.1 0.4 -0.1
0.2 0.4 -0.1
0.3 0.4 -0.1
0.4 0.4 -0.1
0.5 0.4 -0.1
0.6 0.4 -0.1
0.7 0.4 -0.1
0.8 0.4 -0.1
0.9 0.4 -0.1
1 0.4 -0.1
1.1 0.4 -0.1
1.2 0.4 -0.1
1.3 0.4 -0.1
1.4 0.4 -0.1
1.5 0.4 -0.1
1.6 0.4 -0.1
1.7 0.4 -0.1
1.8 0.4 -0.1
1.9 0.4 -0.1
-0.1 0.5 -0.1
0 0.5 -0.1
0.1 0.5 -0.1
0.2 0.5 -0.1
0.3 0.5 -0.1
0.4 0.5 -0.1
0.5 0.5 -0.1
0.6 0.5 -0.1
0.7 0.5 -0.1
0.8 0.5 -0.1
0.9 0.5 -0.1
1 0.5 -0.1
1.1 0.5 -0.1
1.2 0.5 -0.1
1.3 0.5 -0.1
1.4 0.5 -0.1
1.5 0.5 -0.1
1.6 0.5 -0.1
1.7 0.5 -0.1
1.8 0.5 -0.1
1.9 0.5 -0.1
-0.1 0.6 -0.1
0 0.6 -0.1
0.1 0.6 -0.1
0.2 0.6 -0.1
0.3 0.6 -0.1
0.4 0.6 -0.1
0.5 0.6 -0.1
0.6 0.6 -0.1
0.7 0.6 -0.1
0.8 0.6 -0.1
0.9 0.6 -0.1
1 0.6 -0.1
1.1 0.6 -0.1
1.2 0.6 -0.1
1.3 0.6 -0.1
1.4 0.6 -0.1
1.5 0.6 -0.1
1.6 0.6 -0.1
1.7 0.6 -0.1
1.8 0.6 -0.1
1.9 0.6 -0.1
-0.1 0.7 -0.1
0 0.7 -0.1
0.1 0.7 -0.1
0.2 0.7 -0.1
0.3 0.7 -0.1
0.4 0.7 -0.1
0.5 0.7 -0.1
0.6 0.7 -0.1
0.7 0.7 -0.1
0.8 0.7 -0.1
0.9 0.7 -0.1
1 0.7 -0.1
1.1 0.7 -0.1
1.2 0.7 -0.1
1.3 0.7 -0.1
1.4 0.7 -0.1
1.5 0.7 -0.1
1.6 0.7 -0.1
1.7 0.7 -0.1
1.8 0.7 -0.1
1.9 0.7 -0.1
-0.1 0.8 -0.1
0 0.8 -0.1
0.1 0.8 -0.1
0.2 0.8 -0.1
0.3 0.8 -0.1
0.4 0.8 -0.1
0.5 0.8 -0.1
0.6 0.8 -0.1
0.7 0.8 -0.1
0.8 0.8 -0.1
0.9 0.8 -0.1
1 0.8 -0.1
1.1 0.8 -0.1
1.2 0.8 -0.1
1.3 0.8 -0.1
1.4 0.8 -0.1
1.5 0.8 -0.1
1.6 0.8 -0.1
1.7 0.8 -0.1
1.8 0.8 -0.1
1.9 0.8 -0.1
-0.1 0.9 -0.1
0 0.9 -0.1
0.1 0.9 -0.1
0.2 0.9 -0.1
0.3 0.9 -0.1
0.4 0.9 -0.1
0.5 0.9 -0.1
0.6 0.9 -0.1
0.7 0.9 -0.1
0.8 0.9 -0.1
0.9 0.9 -0.1
1 0.9 -0.1
1.1 0.9 -0.1
1.2 0.9 -0.1
1.3 0.9 -0.1
1.4 0.9 -0.1
1.5 0.9 -0.1
1.6 0.9 -0.1
1.7 0.9 -0.1
1.8 0.9 -0.1
1.9 0.9 -0.1
-0.1 1 -0.1
0 1 -0.1
0.1 1 -0.1
0.2 1 -0.1
0.3 1 -0.1
0.4 1 -0.1
0.5 1 -0.1
0.6 1 -0.1
0.7 1 -0.1
0.8 1 -0.1
0.9 1 -0.1
1 1 -0.1
1.1 1 -0.1
1.2 1 -0.1
1.3 1 -0.1
1.4 1 -0.1
1.5 1 -0.1
1.6 1 -0.1
1.7 1 -0.1
1.8 1 -0.1
1.9 1 -0.1
-0.1 1.1 -0.1
0 1.1 -0.1
0.1 1.1 -0.1
0.2 1.1 -0.1
0.3 1.1 -0.1
0.4 1.1 -0.1
0.5 1.1 -0.1
0.6 1.1 -0.1
0.7 1.1 -0.1
0.8 1.1 -0.1
0.9 1.1 -0.1
1 1.1 -0.1
1.1 1.1 -0.1
1.2 1.1 -0.1
1.3 1.1 -0.1
1.4 1.1 -0.1
1.5 1.1 -0.1
1.6 1.1 -0.1
1.7 1.1 -0.1
1.8 1.1 -0.1
1.9 1.1 -0.1
-0.1 1.2 -0.1
0 1.2 -0.1
0.1 1.2 -0.1
0.2 1.2 -0.1
0.3 1.2 -0.1
0.4 1.2 -0.1
0.5 1.2 -0.1
0.6 1.2 -0.1
0.7 1.2 -0.1
0.8 1.2 -0.1
0.9 1.2 -0.1
1 1.2 -0.1
1.1 1.2 -0.1
1.2 1.2 -0.1
1.3 1.2 -0.1
1.4 1.2 -0.1
1.5 1.2 -0.1
1.6 1.2 -0.1
1.7 1.2 -0.1
1.8 1.2 -0.1
1.9 1.2 -0.1
-0.1 1.3 -0.1
0 1.3 -0.1
0.1 1.3 -0.1
0.2 1.3 -0.1
0.3 1.3 -0.1
0.4 1.3 -0.1
0.5 1.3 -0.1
0.6 1.3 -0.1
0.7 1.3 -0.1
0.8 1.3 -0.1
0.9 1.3 -0.1
1 1.3 -0.1
1.1 1.3 -0.1
1.2 1.3 -0.1
1.3 1.3 -0.1
1.4 1.3 -0.1
1.5 1.3 -0.1
1.6 1.3 -0.1
1.7 1.3 -0.1
1.8 1.3 -0.1
1.9 1.3 -0.1
-0.1 1.4 -0.1
0 1.4 -0.1
0.1 1.4 -0.1
0.2 1.4 -0.1
0.3 1.4 -0.1
0.4 1.4 -0.1
0.5 1.4 -0.1
0.6 1.4 -0.1
0.7 1.4 -0.1
0.8 1.4 -0.1
0.9 1.4 -0.1
1 1.4 -0.1
1.1 1.4 -0.1
1.2 1.4 -0.1
1.3 1.4 -0.1
1.4 1.4 -0.1
1.5 1.4 -0.1
1.6 1.4 -0.1
1.7 1.4 -0.1
1.8 1.4 -0.1
1.9 1.4 -0.1
-0.1 1.5 -0.1
0 1.5 -0.1
0.1 1.5 -0.1
0.2 1.5 -0.1
0.3 1.5 -0.1
0.4 1.5 -0.1
0.5 1.5 -0.1
0.6 1.5 -0.1
0.7 1.5 -0.1
0.8 1.5 -0.1
0.9 1.5 -0.1
1 1.5 -0.1
1.1 1.5 -0.1
1.2 1.5 -0.1
1.3 1.5 -0.1
1.4 1.5 -0.1
1.5 1.5 -0.1
1.6 1.5 -0.1
1.7 1.5 -0.1
1.8 1.5 -0.1
1.9 1.5 -0.1
-0.1 1.6 -0.1
0 1.6 -0.1
0.1 1.6 -0.1
0.2 1.6 -0.1
0.3 1.6 -0.1
0.4 1.6 -0.1
0.5 1.6 -0.1
0.6 1.6 -0.1
0.7 1.6 -0.1
0.8 1.6 -0.1
0.9 1.6 -0.1
1 1.6 -0.1
1.1 1.6 -0.1
1.2 1.6 -0.1
1.3 1.6 -0.1
1.4 1.6 -0.1
1.5 1.6 -0.1
1.6 1.6 -0.1
1.7 1.6 -0.1
1.8 1.6 -0.1
1.9 1.6 -0.1
-0.1 1.7 -0.1
0 1.7 -0.1
0.1 1.7 -0.1
0.2 1.7 -0.1
0.3 1.7 -0.1
0.4 1.7 -0.1
0.5 1.7 -0.1
0.6 1.7 -0.1
0.7 1.7 -0.1
0.8 1.7 -0.1
0.9 1.7 -0.1
1 1.7 -0.1
1.1 1.7 -0.1
1.2 1.7 -0.1
1.3 1.7 -0.1
1.4 1.7 -0.1
1.5 1.7 -0.1
1.6 1.7 -0.1
1.7 1.7 -0.1
1.8 1.7 -0.1
1.9 1.7 -0.1
-0.1 1.8 -0.1
0 1.8 -0.1
0.1 1.8 -0.1
0.2 1.8 -0.1
0.3 1.8 -0.1
0.4 1.8 -0.1
0.5 1.8 -0.1
0.6 1.8 -0.1
0.7 1.8 -0.1
0.8 1.8 -0.1
0.9 1.8 -0.1
1 1.8 -0.1
1.1 1.8 -0.1
1.2 1.8 -0.1
1.3 1.8 -0.1
1.4 1.8 -0.1
1.5 1.8 -0.1
1.6 1.8 -0.1
1.7 1.8 -0.1
1.8 1.8 -0.1
1.9 1.8 -0.1
-0.1 1.9 -0.1
0 1.9 -0.1
0.1 1.9 -0.1
0.2 1.9 -0.1
0.3 1.9 -0.1
0.4 1.9 -0.1
0.5 1.9 -0.1
0.6 1.9 -0.1
0.7 1.9 -0.1
0.8 1.9 -0.1
0.9 1.9 -0.1
1 1.9 -0.1
1.1 1.9 -0.1
1.2 1.9 -0.1
1.3 1.9 -0.1
1.4 1.9 -0.1
1.5 1.9 -0.1
1.6 1.9 -0.1
1.7 1.9 -0.1
1.8 1.9 -0.1
1.9 1.9 -0.1
-0.1 -0.1 0
0 -0.1 0
0.1 -0.1 0
0.2 -0.1 0
0.3 -0.1 0
0.4 -0.1 0
0.5 -0.1 0
0.6 -0.1 0
0.7 -0.1 0
0.8 -0.1 0
0.9 -0.1 0
1 -0.1 0
1.1 -0.1 0
1.2 -0.1 0
1.3 -0.1 0
1.4 -0.1 0
1.5 -0.1 0
1.6 -0.1 0
1.7 -0.1 0
1.8 -0.1 0
1.9 -0.1 0
-0.1 0 0
0 0 0
0.1 0 0
0.2 0 0
0.3 0 0
0.4 0 0
0.5 0 0
0.6 0 0
0.7 0 0
0.8 0 0
0.9 0 0
1 0 0
1.1 0 0
1.2 0 0
1.3 0 0
1.4 0 0
1.5 0 0
1.6 0 0
1.7 0 0
1.8 0 0
1.9 0 0
-0.1 0.1 0
0 0.1 0
0.1 0.1 0
0.2 0.1 0
0.3 0.1 0
0.4 0.1 0
0.5 0.1 0
0.6 0.1 0
0.7 0.1 0
0.8 0.1 0
0.9 0.1 0
1 0.1 0
1.1 0.1 0
1.2 0.1 0
1.3 0.1 0
1.4 0.1 0
1.5 0.1 0
1.6 0.1 0
1.7 0.1 0
1.8 0.1 0
1.9 0.1 0
-0.1 0.2 0
0 0.2 0
0.1 0.2 0
0.2 0.2 0
0.3 0.2 0
0.4 0.2 0
0.5 0.2 0
0.6 0.2 0
0.7 0.2 0
0.8 0.2 0
0.9 0.2 0
1 0.2 0
1.1 0.2 0
1.2 0.2 0
1.3 0.2 0
1.4 0.2 0
1.5 0.2 0
1.6 0.2 0
1.7 0.2 0
1.8 0.2 0
1.9 0.2 0
-0.1 0.3 0
0 0.3 0
0.1 0.3 0
0.2 0.3 0
0.3 0.3 0
0.4 0.3 0
0.5 0.3 0
0.6 0.3 0
0.7 0.3 0
0.8 0.3 0
0.9 0.3 0
1 0.3 0
1.1 0.3 0
1.2 0.3 0
1.3 0.3 0
1.4 0.3 0
1.5 0.3 0
1.6 0.3 0
1.7 0.3 0
1.8 0.3 0
1.9 0.3 0
-0.1 0.4 0
0 0.4 0
0.1 0.4 0
0.2 0.4 0
0.3 0.4 0
0.4 0.4 0
0.5 0.4 0
0.6 0.4 0
0.7 0.4 0
0.8 0.4 0
0.9 0.4 0
1 0.4 0
1.1 0.4 0
1.2 0.4 0
1.3 0.4 0
1.4 0.4 0
1.5 0.4 0
1.6 0.4 0
1.7 0.4 0
1.8 0.4 0
1.9 0.4 0
-0.1 0.5 0
0 0.5 0
0.1 0.5 0
0.2 0.5 0
0.3 0.5 0
0.4 0.5 0
0.5 0.5 0
0.6 0.5 0
0.7 0.5 0
0.8 0.5 0
0.9 0.5 0
1 0.5 0
1.1 0.5 0
1.2 0.5 0
1.3 0.5 0
1.4 0.5 0
1.5 0.5 0
1.6 0.5 0
1.7 0.5 0
1.8 0.5 0
1.9 0.5 0
-0.1 0.6 0
0 0.6 0
0.1 0.6 0
0.2 0.6 0
0.3 0.6 0
0.4 0.6 0
0.5 0.6 0
0.6 0.6 0
0.7 0.6 0
0.8 0.6 0
0.9 0.6 0
1 0.6 0
1.1 0.6 0
1.2 0.6 0
1.3 0.6 0
1.4 0.6 0
1.5 0.6 0
1.6 0.6 0
1.7 0.6 0
1.8 0.6 0
1.9 0.6 0
-0.1 0.7 0
0 0.7 0
0.1 0.7 0
0.2 0.7 0
0.3 0.7 0
0.4 0.7 0
0.5 0.7 0
0.6 0.7 0
0.7 0.7 0
0.8 0.7 0
0.9 0.7 0
1 0.7 0
1.1 0.7 0
1.2 0.7 0
1.3 0.7 0
1.4 0.7 0
1.5 0.7 0
1.6 0.7 0
1.7 0.7 0
1.8 0.7 0
1.9 0.7 0
-0.1 0.8 0
0 0.8 0
0.1 0.8 0
0.2 0.8 0
0.3 0.8 0
0.4 0.8 0
0.5 0.8 0
0.6 0.8 0
0.7 0.8 0
0.8 0.8 0
0.9 0.8 0
1 0.8 0
1.1 0.8 0
1.2 0.8 0
1.3 0.8 0
1.4 0.8 0
1.5 0.8 0
1.6 0.8 0
1.7 0.8 0
1.8 0.8 0
1.9 0.8 0
-0.1 0.9 0
0 0.9 0
0.1 0.9 0
0.2 0.9 0
0.3 0.9 0
0.4 0.9 0
0.5 0.9 0
0.6 0.9 0
0.7 0.9 0
0.8 0.9 0
0.9 0.9 0
1 0.9 0
1.1 0.9 0
1.2 0.9 0
1.3 0.9 0
1.4 0.9 0
1.5 0.9 0
1.6 0.9 0
1.7 0.9 0
1.8 0.9 0
1.9 0.9 0
-0.1 1 0
0 1 0
0.1 1 0
0.2 1 0
0.3 1 0
0.4 1 0
0.5 1 0
0.6 1 0
0.7 1 0
0.8 1 0
0.9 1 0
1 1 0
1.1 1 0
1.2 1 0
1.3 1 0
1.4 1 0
1.5 1 0
1.6 1 0
1.7 1 0
1.8 1 0
1.9 1 0
-0.1 1.1 0
0 1.1 0
0.1 1.1 0
0.2 1.1 0
0.3 1.1 0
0.4 1.1 0
0.5 1.1 0
0.6 1.1 0
0.7 1.1 0
0.8 1.1 0
0.9 1.1 0
1 1.1 0
1.1 1.1 0
1.2 1.1 0
1.3 1.1 0
1.4 1.1 0
1.5 1.1 0
1.6 1.1 0
1.7 1.1 0
1.8 1.1 0
1.9 1.1 0
-0.1 1.2 0
0 1.2 0
0.1 1.2 0
0.2 1.2 0
0.3 1.2 0
0.4 1.2 0
0.5 1.2 0
0.6 1.2 0
0.7 1.2 0
0.8 1.2 0
0.9 1.2 0
1 1.2 0
1.1 1.2 0
1.2 1.2 0
1.3 1.2 0
1.4 1.2 0
1.5 1.2 0
1.6 1.2 0
1.7 1.2 0
1.8 1.2 0
1.9 1.2 0
-0.1 1.3 0
0 1.3 0
0.1 1.3 0
0.2 1.3 0
0.3 1.3 0
0.4 1.3 0
0.5 1.3 0
0.6 1.3 0
0.7 1.3 0
0.8 1.3 0
0.9 1.3 0
1 1.3 0
1.1 1.3 0
1.2 1.3 0
1.3 1.3 0
1.4 1.3 0
1.5 1.3 0
1.6 1.3 0
1.7 1.3 0
1.8 1.3 0
1.9 1.3 0
-0.1 1.4 0
0 1.4 0
0.1 1.4 0
0.2 1.4 0
0.3 1.4 0
0.4 1.4 0
0.5 1.4 0
0.6 1.4 0
0.7 1.4 0
0.8 1.4 0
0.9 1.4 0
1 1.4 0
1.1 1.4 0
1.2 1.4 0
1.3 1.4 0
1.4 1.4 0
1.5 1.4 0
1.6 1.4 0
1.7 1.4 0
1.8 1.4 0
1.9 1.4 0
-0.1 1.5 0
0 1.5 0
0.1 1.5 0
0.2 1.5 0
0.3 1.5 0
0.4 1.5 0
0.5 1.5 0
0.6 1.5 0
0.7 1.5 0
0.8 1.5 0
0.9 1.5 0
1 1.5 0
1.1 1.5 0
1.2 1.5 0
1.3 1.5 0
1.4 1.5 0
1.5 1.5 0
1.6 1.5 0
1.7 1.5 0
1.8 1.5 0
1.9 1.5 0
-0.1 1.6 0
0 1.6 0
0.1 1.6 0
0.2 1.6 0
0.3 1.6 0
0.4 1.6 0
0.5 1.6 0
0.6 1.6 0
0.7 1.6 0
0.8 1.6 0
0.9 1.6 0
1 1.6 0
1.1 1.6 0
1.2 1.6 0
1.3 1.6 0
1.4 1.6 0
1.5 1.6 0
1.6 1.6 0
1.7 1.6 0
1.8 1.6 0
1.9 1.6 0
-0.1 1.7 0
0 1.7 0
0.1 1.7 0
0.2 1.7 0
0.3 1.7 0
0.4 1.7 0
0.5 1.7 0
0.6 1.7 0
0.7 1.7 0
0.8 1.7 0
0.9 1.7 0
1 1.7 0
1.1 1.7 0
1.2 1.7 0
1.3 1.7 0
1.4 1.7 0
1.5 1.7 0
1.6 1.7 0
1.7 1.7 0
1.8 1.7 0
1.9 1.7 0
-0.1 1.8 0
0 1.8 0
0.1 1.8 0
0.2 1.8 0
0.3 1.8 0
0.4 1.8 0
0.5 1.8 0
0.6 1.8 0
0.7 1.8 0
0.8 1.8 0
0.9 1.8 0
1 1.8 0
1.1 1.8 0
1.2 1.8 0
1.3 1.8 0
1.4 1.8 0
1.5 1.8 0
1.6 1.8 0
1.7 1.8 0
1.8 1.8 0
1.9 1.8 0
-0.1 1.9 0
0 1.9 0
0.1 1.9 0
0.2 1.9 0
0.3 1.9 0
0.4 1.9 0
0.5 1.9 0
0.6 1.9 0
0.7 1.9 0
0.8 1.9 0
0.9 1.9 0
1 1.9 0
1.1 1.9 0
1.2 1.9 0
1.3 1.9 0
1.4 1.9 0
1.5 1.9 0
1.6 1.9 0
1.7 1.9 0
1.8 1.9 0
[...]
CELL_DATA 4000
VECTORS velocity double 
-2.2004e-05 0.000312337 -0.000290333
-2.5212e-05 0.000369035 -0.000335234
-2.44708e-05 0.000376914 -0.000345215
-1.96345e-05 0.000379269 -0.000350213
-1.126e-05 0.000380306 -0.000352784
-4.91819e-07 0.000380932 -0.000354053
1.15263e-05 0.000381451 -0.00035461
2.37896e-05 0.000381957 -0.000354731
3.54386e-05 0.000382479 -0.00035452
4.56783e-05 0.000382968 -0.000353954
5.37646e-05 0.000383407 -0.000352952
5.89642e-05 0.000383739 -0.000351389
6.04458e-05 0.000383848 -0.000349184
5.7497e-05 0.000383595 -0.000346279
4.95783e-05 0.00038275 -0.000342719
3.6539e-05 0.000381143 -0.000338587
1.88307e-05 0.000378585 -0.000333934
-2.48697e-06 0.000374754 -0.000328791
-2.58679e-05 0.000367598 -0.000321421
-1.2934e-05 0.000319944 -0.000277929
-9.81539e-06 0.00087949 -0.00035958
-1.21606e-05 0.00104549 -0.000426373
-1.35614e-05 0.00106795 -0.000440791
-1.0963e-05 0.00107433 -0.000447532
-3.97966e-06 0.00107686 -0.000450901
6.45693e-06 0.00107814 -0.00045251
1.91304e-05 0.00107909 -0.000453178
3.28647e-05 0.00108002 -0.000453278
4.65284e-05 0.00108102 -0.000452965
5.90919e-05 0.00108204 -0.000452183
6.95144e-05 0.00108301 -0.000450839
7.67116e-05 0.00108373 -0.000448761
7.9478e-05 0.00108387 -0.000445871
7.66396e-05 0.00108306 -0.000442132
6.73122e-05 0.00108081 -0.000437488
5.10242e-05 0.00107658 -0.000432032
2.79427e-05 0.00106984 -0.000425902
-8.73618e-07 0.00105963 -0.000419154
-3.19429e-05 0.00103826 -0.00040918
-1.59715e-05 0.000885477 -0.000348489
6.32961e-06 0.00160771 -0.000416921
1.05719e-05 0.00193892 -0.000494697
1.01096e-05 0.00198309 -0.000511554
1.15957e-05 0.00199495 -0.000519613
1.69868e-05 0.00199937 -0.000523727
2.59545e-05 0.00200137 -0.000525724
3.74274e-05 0.00200269 -0.000526598
5.02155e-05 0.00200397 -0.000526795
6.31387e-05 0.00200538 -0.000526475
7.50479e-05 0.00200688 -0.000525579
8.4746e-05 0.0020083 -0.000524004
9.09e-05 0.00200928 -0.000521587
9.2078e-05 0.00200929 -0.000518199
8.6864e-05 0.00200762 -0.000513781
7.40584e-05 0.00200348 -0.000508282
5.29363e-05 0.00199598 -0.000501772
2.34072e-05 0.00198414 -0.00049448
-1.35668e-05 0.00196596 -0.000486561
-5.21495e-05 0.00192398 -0.000475218
-2.60747e-05 0.00161115 -0.00040553
2.42983e-05 0.00246974 -0.000488672
3.76155e-05 0.00302363 -0.000577861
3.93218e-05 0.00309767 -0.000596819
4.00828e-05 0.00311649 -0.000606199
4.39016e-05 0.00312327 -0.00061116
5.12269e-05 0.00312617 -0.000613672
6.12502e-05 0.00312794 -0.000614845
7.27939e-05 0.00312959 -0.000615213
8.46148e-05 0.00313142 -0.000614952
9.5409e-05 0.00313338 -0.000614
0.000103781 0.0031352 -0.000612243
0.000108172 0.00313635 -0.000609506
0.000106831 0.00313606 -0.000605615
9.8075e-05 0.00313337 -0.000600417
8.0415e-05 0.00312707 -0.000593942
5.27972e-05 0.00311578 -0.000586302
1.48785e-05 0.00309805 -0.000577831
-3.18847e-05 0.00307059 -0.000568778
-7.77501e-05 0.00300058 -0.000556232
-3.88751e-05 0.00247104 -0.000476198
4.37729e-05 0.00346357 -0.000573047
6.79311e-05 0.00430002 -0.000674974
7.26162e-05 0.00441345 -0.000695852
7.27629e-05 0.00444096 -0.00070655
7.47997e-05 0.00445064 -0.000712408
8.01708e-05 0.00445469 -0.000715496
8.84026e-05 0.00445706 -0.000717026
9.8374e-05 0.0044592 -0.000717601
0.000108759 0.00446152 -0.000717436
0.000118111 0.00446396 -0.000716475
0.000124795 0.00446617 -0.000714587
0.000127007 0.00446747 -0.00071151
0.000122697 0.00446689 -0.000707073
0.000109795 0.00446309 -0.000701083
8.63618e-05 0.00445442 -0.000693601
5.10871e-05 0.00443902 -0.000684722
3.64145e-06 0.00441479 -0.000674935
-5.37508e-05 0.00437637 -0.000664813
-0.000106433 0.00426916 -0.000651255
-5.32163e-05 0.00346346 -0.000559328
6.49587e-05 0.0045966 -0.000667523
0.000101568 0.00577874 -0.000783332
0.000109906 0.00594252 -0.000805925
0.000109454 0.0059807 -0.00081789
0.000109405 0.00599383 -0.00082468
0.000112413 0.0059993 -0.000828363
0.000118427 0.00600246 -0.000830267
0.000126407 0.00600522 -0.000831079
0.000134952 0.00600813 -0.000831061
0.000142474 0.00601114 -0.000830131
0.00014713 0.00601383 -0.000828134
0.000146843 0.00601539 -0.000824745
0.000139168 0.00601461 -0.000819785
0.000121565 0.00600976 -0.000812978
9.16649e-05 0.00599866 -0.000804433
4.77696e-05 0.00597885 -0.00079434
-1.03476e-05 0.00594753 -0.00078323
-7.92417e-05 0.0058962 -0.000772069
-0.000138411 0.00574097 -0.000757672
-6.92057e-05 0.00459601 -0.000652557
8.81283e-05 0.00587831 -0.000769761
0.000138823 0.00747307 -0.000900265
0.000151412 0.00769943 -0.000924323
0.000150295 0.00775045 -0.000937448
0.000147799 0.00776753 -0.000945148
0.000147993 0.00777464 -0.000949417
0.00015132 0.00777874 -0.000951704
0.000156856 0.00778225 -0.000952782
0.000163147 0.00778588 -0.00095295
0.000168485 0.00778961 -0.0009521
0.000170831 0.00779299 -0.000950052
0.000167776 0.00779509 -0.000946418
0.000156406 0.00779436 -0.000941017
0.000133601 0.00778869 -0.000933506
9.6496e-05 0.00777533 -0.00092388
4.30422e-05 0.00775114 -0.00091247
-2.69002e-05 0.00771224 -0.000900048
-0.000108359 0.00764564 -0.000888017
-0.000174046 0.00742992 -0.000873031
-8.70231e-05 0.00587829 -0.000753625
0.000113437 0.00731689 -0.000877602
0.0001798 0.00939524 -0.00102329
0.000197137 0.00969748 -0.00104846
0.000195202 0.00976351 -0.00106257
0.000189854 0.00978487 -0.0010711
0.000186762 0.00979369 -0.00107592
0.000186944 0.00979879 -0.00107858
0.00018961 0.00980316 -0.00107994
0.000193313 0.00980768 -0.00108033
0.000196238 0.00981241 -0.00107963
0.000196111 0.00981683 -0.00107763
0.000190104 0.0098199 -0.0010739
0.000174809 0.00981976 -0.00106813
0.000146469 0.00981382 -0.00106003
0.000101563 0.00979877 -0.00104948
3.75809e-05 0.00977058 -0.00103684
-4.55431e-05 0.00972385 -0.00102317
-0.000140905 0.00963944 -0.00101041
-0.000213534 0.00934919 -0.000995103
-0.000106767 0.00731901 -0.000860472
0.000140814 0.00891824 -0.000989317
0.000224181 0.0115551 -0.00115043
0.000246545 0.0119474 -0.00117626
0.000243504 0.0120303 -0.00119109
0.000234858 0.0120559 -0.00120027
0.000228024 0.0120663 -0.00120556
0.00022467 0.0120723 -0.00120855
0.000224191 0.0120776 -0.00121019
0.000225151 0.0120832 -0.00121085
0.000225588 0.0120892 -0.0012104
0.000223028 0.0120952 -0.00120855
0.000214142 0.0120999 -0.00120496
0.000194947 0.0121013 -0.00119908
0.00016101 0.0120963 -0.00119054
0.00010795 0.0120808 -0.00117923
3.25568e-05 0.0120497 -0.00116552
-6.52019e-05 0.0119955 -0.00115076
-0.000176104 0.0118908 -0.00113741
-0.000256354 0.0115106 -0.00112209
-0.000128177 0.0089249 -0.000971587
0.000169811 0.010687 -0.00110438
0.000270957 0.0139613 -0.00128111
0.000298206 0.0144579 -0.001307
0.000293567 0.0145591 -0.00132217
0.000281128 0.0145883 -0.00133179
0.000270191 0.0145995 -0.00133738
0.000263075 0.0146062 -0.00134061
0.000259354 0.0146123 -0.00134251
0.000257638 0.0146191 -0.00134345
0.000255793 0.0146268 -0.00134339
0.000251176 0.014635 -0.00134183
0.000239983 0.0146423 -0.00133855
0.000217513 0.0146467 -0.00133293
0.000178476 0.0146446 -0.00132435
0.000117374 0.014631 -0.00131263
3.00153e-05 0.0145992 -0.00129817
-8.37444e-05 0.0145388 -0.00128259
-0.000212152 0.0144118 -0.00126891
-0.000301355 0.013925 -0.00125378
-0.000150677 0.0107016 -0.00108668
0.000199479 0.0126304 -0.00122491
0.000318086 0.0166246 -0.00141784
0.000349307 0.0172396 -0.00144316
0.000342237 0.0173593 -0.00145814
0.000325483 0.0173904 -0.00146783
0.000310211 0.0174014 -0.00147348
0.000299354 0.017408 -0.00147679
0.000292599 0.0174147 -0.0014789
0.000288637 0.0174227 -0.00148006
0.000285175 0.0174324 -0.00148055
0.000279372 0.0174435 -0.00147965
0.000267079 0.0174548 -0.00147699
0.000242846 0.0174643 -0.00147196
0.000200218 0.017468 -0.00146382
0.000132186 0.0174599 -0.00145225
3.30814e-05 0.0174314 -0.00143755
-9.77204e-05 0.0173681 -0.00142154
-0.000245859 0.0172178 -0.00140794
-0.000346242 0.0166065 -0.00139325
-0.000173121 0.0126573 -0.0012081
0.000228058 0.0147659 -0.00135831
0.000361829 0.0195672 -0.00156932
0.000394815 0.020313 -0.00159342
0.000383937 0.0204491 -0.00160752
0.000362351 0.0204793 -0.00161674
0.00034281 0.020488 -0.00162211
0.000328627 0.0204934 -0.00162525
0.00031948 0.0205001 -0.00162752
0.000314079 0.0205092 -0.00162892
0.000310237 0.020521 -0.00162979
0.000304944 0.0205355 -0.00162968
0.000293748 0.0205523 -0.00162801
0.000270527 0.0205694 -0.00162404
0.000227398 0.020583 -0.00161697
0.00015532 0.020586 -0.0016063
4.63017e-05 0.0205675 -0.00159216
-0.000101696 0.0205075 -0.00157639
-0.000272 0.0203353 -0.00156329
-0.000387096 0.0195814 -0.0015492
-0.000193548 0.01481 -0.00134353
0.000252427 0.0171368 -0.00152208
0.000395597 0.022839 -0.00175615
0.000426019 0.0237245 -0.00177841
0.000409221 0.0238718 -0.00179073
0.00038238 0.0238958 -0.00179878
0.000359091 0.0238994 -0.00180343
0.000342564 0.0239021 -0.00180604
0.000332334 0.0239077 -0.00180816
0.000326974 0.0239172 -0.00180992
0.000324572 0.0239309 -0.00181128
0.000322338 0.0239493 -0.00181197
0.000315747 0.0239728 -0.00181152
0.00029811 0.0240002 -0.0018091
0.000259988 0.0240285 -0.00180388
0.000189728 0.0240501 -0.00179506
7.56978e-05 0.0240518 -0.00178259
-8.74121e-05 0.0240063 -0.00176816
-0.000281994 0.0238182 -0.00175628
-0.000417535 0.0229046 -0.00174268
-0.000208767 0.017203 -0.00151073
0.000266957 0.0198423 -0.00175341
0.000407746 0.026551 -0.002022
0.000427879 0.027578 -0.00204208
0.00040209 0.0277254 -0.00205144
0.000369959 0.0277357 -0.00205735
0.00034438 0.0277301 -0.00206069
0.000327381 0.0277281 -0.00206261
0.000318166 0.0277316 -0.00206415
0.000315265 0.0277404 -0.00206585
0.000317113 0.0277551 -0.00206762
0.000321482 0.027777 -0.00206919
0.000324339 0.0278074 -0.00207013
0.000318942 0.0278471 -0.00206969
0.000294624 0.0278947 -0.00206703
0.000236649 0.0279441 -0.00206119
0.000128014 0.0279804 -0.0020518
-4.31371e-05 0.0279677 -0.00204022
-0.000262089 0.0277787 -0.00203069
-0.00042641 0.0266932 -0.0020173
-0.000213205 0.0199333 -0.00174704
0.000260951 0.0230976 -0.00212989
0.00037701 0.0309408 -0.002458
0.000373974 0.0320973 -0.00247614
0.000335219 0.0322254 -0.00248102
0.000298778 0.0322114 -0.00248363
0.00027405 0.0321919 -0.00248463
0.000260291 0.0321828 -0.00248543
0.000255644 0.0321824 -0.00248639
0.000258717 0.0321892 -0.00248781
0.000268631 0.0322034 -0.00248972
0.000284176 0.032227 -0.00249197
0.000302667 0.032263 -0.00249422
0.000318387 0.0323149 -0.00249593
0.000320645 0.0323847 -0.00249634
0.000292011 0.0324702 -0.00249452
0.000208485 0.0325585 -0.00248983
4.66041e-05 0.0326065 -0.00248312
-0.000190272 0.0324474 -0.00247768
-0.000394338 0.0311917 -0.00246365
-0.000197169 0.0232114 -0.00213018
0.000212701 0.0273649 -0.00281876
0.000262859 0.0365136 -0.00326021
0.000216352 0.0377618 -0.00327793
0.00016058 0.0378394 -0.00327631
0.00012339 0.0377876 -0.00327443
0.00010544 0.0377496 -0.00327242
0.000101401 0.0377314 -0.00327127
0.000107543 0.0377258 -0.00327109
0.000122377 0.0377287 -0.00327188
0.000145943 0.0377399 -0.00327358
0.000178674 0.0377621 -0.00327613
0.000220299 0.0377999 -0.00327938
0.00026793 0.0378599 -0.00328306
0.000313381 0.0379495 -0.00328665
0.000339117 0.0380746 -0.00328947
0.000314603 0.0382307 -0.00329088
0.000198965 0.0383754 -0.00329129
-3.1644e-05 0.0383018 -0.00329244
-0.00028504 0.0369101 -0.00327648
-0.00014252 0.0274904 -0.00282732
7.43123e-05 0.0336591 -0.00420119
-1.60676e-05 0.0443616 -0.00487274
-0.000135233 0.0456175 -0.00489443
-0.000209318 0.0456003 -0.00488401
-0.000237668 0.0454976 -0.0048755
-0.000236798 0.045438 -0.00486964
-0.000219327 0.0454097 -0.00486602
-0.000191345 0.0453973 -0.00486418
-0.000154477 0.0453943 -0.00486384
-0.000107731 0.0453997 -0.00486485
-4.86692e-05 0.0454161 -0.0048672
2.57128e-05 0.0454493 -0.0048709
0.000117554 0.0455084 -0.00487592
0.00022522 0.0456071 -0.00488217
0.000337415 0.0457626 -0.0048894
0.000423745 0.0459888 -0.0048974
0.000425324 0.0462627 -0.00490644
0.000268074 0.0463583 -0.00491664
-2.5725e-05 0.0449351 -0.00489594
-1.28625e-05 0.0337715 -0.00421959
-0.000269874 0.0442412 -0.00713161
-0.000631207 0.0568402 -0.00826675
-0.000853975 0.0579443 -0.00830193
-0.000933186 0.0577852 -0.00828225
-0.000927654 0.0576278 -0.00826577
-0.00088167 0.0575483 -0.00825474
-0.000817574 0.05751 -0.00824773
-0.000744114 0.0574898 -0.00824357
-0.000663187 0.057479 -0.00824157
-0.000573114 0.0574759 -0.00824142
-0.000469776 0.0574824 -0.00824305
-0.000346899 0.0575038 -0.00824659
-0.000196138 0.0575501 -0.0082522
-8.3343e-06 0.0576382 -0.00826014
0.000221837 0.0577955 -0.00827064
0.00048282 0.0580605 -0.00828399
0.000718593 0.0584564 -0.00830071
0.000794443 0.0588028 -0.00831964
0.000549136 0.0575729 -0.00828757
0.000274568 0.0443079 -0.00716173
-0.0011164 0.0620139 -0.0113319
-0.00192634 0.0763482 -0.0129561
-0.00221971 0.0770613 -0.0130099
-0.00221709 0.0767682 -0.012985
-0.00209112 0.0765839 -0.0129609
-0.00192389 0.0764981 -0.0129442
-0.00174718 0.076455 -0.0129333
-0.00157117 0.0764296 -0.0129265
-0.00139732 0.076413 -0.0129227
-0.00122315 0.0764028 -0.0129213
-0.00104347 0.0763999 -0.0129223
-0.000849823 0.0764076 -0.0129256
-0.000628828 0.0764333 -0.0129318
-0.000359525 0.0764909 -0.0129412
-1.09829e-05 0.0766075 -0.0129547
0.000454144 0.0768328 -0.0129725
0.00105079 0.077238 -0.012994
0.00166711 0.0777758 -0.0130138
0.00183317 0.0770547 -0.0129659
0.000916583 0.0620357 -0.0113776
-0.00295634 0.0310069 0.0429168
-0.0039271 0.0381741 0.0475097
-0.00380482 0.0385306 0.0475634
-0.00335729 0.0383841 0.0475709
-0.0028774 0.038292 0.0475955
-0.00244693 0.0382491 0.0476151
-0.00207784 0.0382275 0.0476278
-0.0017627 0.0382148 0.0476357
-0.00149039 0.0382065 0.0476404
-0.00124996 0.0382014 0.0476423
-0.00103088 0.0382 0.0476416
-0.000821733 0.0382038 0.0476379
-0.000607405 0.0382166 0.0476302
-0.000363609 0.0382454 0.0476169
-4.57153e-05 0.0383038 0.0475956
0.000433579 0.0384164 0.0475642
0.00123868 0.038619 0.0475265
0.00259074 0.0388879 0.047507
0.00417351 0.0385273 0.0474438
0.00208675 0.0310178 0.0428698
-3.0373e-05 0.000324142 -0.000687683
-4.26566e-05 0.000386452 -0.000824086
-4.68027e-05 0.000393605 -0.000851841
-4.37119e-05 0.000395362 -0.000864632
-3.49927e-05 0.000396111 -0.000871299
-2.24164e-05 0.000396651 -0.00087477
-7.51275e-06 0.000397199 -0.000876524
8.45994e-06 0.000397813 -0.000877258
2.44821e-05 0.000398488 -0.000877145
3.9617e-05 0.000399197 -0.000876136
5.29966e-05 0.000399918 -0.000873976
6.36876e-05 0.000400613 -0.000870363
7.06148e-05 0.000401131 -0.000865094
7.27111e-05 0.000401282 -0.000857997
6.90899e-05 0.000400902 -0.000849098
5.93414e-05 0.000399792 -0.000838507
4.36571e-05 0.000397658 -0.00082655
2.30426e-05 0.000394057 -0.000813398
-1.23454e-06 0.000386346 -0.000793615
-6.17271e-07 0.000329962 -0.000671126
-2.24629e-05 0.000937082 -0.000899651
-3.63486e-05 0.00113331 -0.00110634
-4.42449e-05 0.00115735 -0.00114822
-4.45083e-05 0.00116294 -0.00116616
-3.78523e-05 0.00116483 -0.00117509
-2.58202e-05 0.0011658 -0.00117957
-9.98259e-06 0.00116668 -0.00118171
8.22594e-06 0.00116771 -0.00118251
2.7542e-05 0.00116895 -0.00118224
4.67591e-05 0.00117039 -0.00118076
6.46857e-05 0.00117193 -0.0011778
7.99193e-05 0.00117335 -0.00117293
9.08601e-05 0.00117432 -0.00116588
9.5934e-05 0.00117439 -0.0011564
9.36965e-05 0.00117306 -0.0011444
8.3129e-05 0.00116972 -0.00112995
6.38999e-05 0.0011636 -0.00111344
3.67954e-05 0.00115329 -0.00109479
4.15254e-06 0.0011284 -0.00106492
2.07627e-06 0.00094236 -0.000882652
-6.18025e-06 0.00175767 -0.00107168
-1.30713e-05 0.00216693 -0.00131941
-1.93163e-05 0.0022191 -0.00137033
-1.9816e-05 0.00223079 -0.0013922
-1.38747e-05 0.00223439 -0.00140307
-2.55613e-06 0.00223584 -0.0014085
1.27085e-05 0.00223695 -0.00141112
3.05105e-05 0.00223829 -0.0014121
4.95675e-05 0.00224 -0.00141179
6.85796e-05 0.00224209 -0.00141005
8.61895e-05 0.00224433 -0.00140652
0.000100787 0.00224633 -0.00140077
0.000110517 0.00224753 -0.00139239
0.000113499 0.00224719 -0.00138104
0.000107918 0.00224432 -0.00136657
9.23022e-05 0.00223781 -0.00134907
6.58468e-05 0.00222623 -0.0013289
2.89233e-05 0.00220661 -0.00130606
-1.38448e-05 0.00215441 -0.00126973
-6.92242e-06 0.00176186 -0.0010527
1.34198e-05 0.0027645 -0.00128165
1.69349e-05 0.00347259 -0.00157359
1.42501e-05 0.00356646 -0.00163328
1.44931e-05 0.00358684 -0.00165923
2.02493e-05 0.00359291 -0.00167232
3.11367e-05 0.00359511 -0.00167896
4.59204e-05 0.00359655 -0.00168225
6.32233e-05 0.00359825 -0.00168359
8.17236e-05 0.00360047 -0.00168336
9.9991e-05 0.00360317 -0.00168146
0.000116481 0.00360605 -0.00167745
0.000129386 0.00360855 -0.0016708
0.000136581 0.00360982 -0.001661
0.000135744 0.00360876 -0.00164759
0.000124668 0.00360386 -0.00163037
0.000101364 0.00359339 -0.0016095
6.45811e-05 0.00357512 -0.00158544
1.48195e-05 0.00354358 -0.00155823
-3.89184e-05 0.00345149 -0.00151556
-1.94592e-05 0.00276787 -0.00125976
3.52868e-05 0.00396067 -0.00152629
5.15519e-05 0.00506118 -0.00186796
5.35224e-05 0.00521319 -0.00193667
5.4787e-05 0.00524547 -0.00196685
6.02202e-05 0.00525492 -0.00198235
7.03675e-05 0.00525828 -0.00199034
8.42973e-05 0.0052603 -0.00199441
0.000100689 0.00526251 -0.0019962
0.000118171 0.00526533 -0.00199617
0.000135214 0.00526871 -0.00199418
0.000150124 0.00527223 -0.00198977
0.000160803 0.0052752 -0.00198224
0.000164829 0.00527646 -0.00197093
0.000159383 0.00527452 -0.00195534
0.00014173 0.00526723 -0.0019352
0.000109338 0.00525209 -0.00191065
6.05502e-05 0.00522588 -0.00188239
-3.62339e-06 0.00517924 -0.00185076
-6.83846e-05 0.0050314 -0.00180163
-3.41923e-05 0.00396377 -0.00150143
5.95501e-05 0.00535886 -0.00179961
9.07008e-05 0.00695406 -0.00219603
9.82e-05 0.00718373 -0.00227395
0.000100513 0.0072317 -0.00230844
0.000105268 0.00724559 -0.00232642
0.000114138 0.00725059 -0.00233584
0.000126596 0.00725349 -0.00234074
0.000141423 0.00725644 -0.00234305
0.000157258 0.00726001 -0.00234332
0.000172483 0.00726417 -0.00234137
0.000185274 0.00726843 -0.00233659
0.000193237 0.00727194 -0.00232827
0.000193593 0.00727322 -0.00231551
0.000182898 0.00727027 -0.00229776
0.000157785 0.00726037 -0.00227461
0.000115179 0.00724008 -0.00224622
5.29913e-05 0.00720471 -0.00221355
-2.69668e-05 0.00713902 -0.00217741
-0.000102792 0.00691617 -0.00212171
-5.13961e-05 0.00536253 -0.00177197
8.6582e-05 0.00697404 -0.00209596
0.000134783 0.00917539 -0.00255124
0.000148611 0.00950523 -0.00263841
0.000151906 0.0095733 -0.00267716
0.000155516 0.00959274 -0.00269758
0.000162466 0.00959983 -0.00270841
0.000172738 0.00960391 -0.00271417
0.00018528 0.00960783 -0.00271707
0.000198777 0.00961234 -0.00271772
0.000211567 0.00961747 -0.00271594
0.000221716 0.00962268 -0.00271099
0.000226477 0.00962692 -0.00270209
0.000222627 0.00962845 -0.00268807
0.000206147 0.00962462 -0.00266823
0.000172841 0.00961204 -0.00264207
0.000118903 0.00958626 -0.00260974
4.17905e-05 0.00954058 -0.00257254
-5.5499e-05 0.00945124 -0.00253183
-0.000142672 0.00913068 -0.00246949
-7.13359e-05 0.00697921 -0.00206596
0.00011664 0.00881961 -0.00240968
0.000184062 0.011748 -0.00292699
0.000204932 0.0122034 -0.00302318
0.000209056 0.0122964 -0.00306592
0.000210969 0.0123224 -0.00308863
0.00021531 0.0123319 -0.00310075
0.000222663 0.0123374 -0.00310734
0.000232191 0.0123425 -0.00311086
0.000242706 0.0123482 -0.003112
0.000252527 0.0123546 -0.0031106
0.000259569 0.0123611 -0.00310574
0.000260774 0.0123664 -0.00309658
0.000252291 0.0123686 -0.00308177
0.000229491 0.0123644 -0.00306022
0.000187311 0.0123496 -0.00303127
0.000120958 0.0123184 -0.00299512
2.73053e-05 0.0122615 -0.0029534
-8.9127e-05 0.0121434 -0.00290813
-0.000188292 0.0116989 -0.00283911
-9.4146e-05 0.00882771 -0.00237796
0.00014972 0.0109056 -0.00273556
0.000238349 0.014691 -0.00331719
0.000266751 0.0152999 -0.00342186
0.000271388 0.0154228 -0.00346808
0.000270981 0.015456 -0.0034927
0.000271995 0.0154681 -0.00350588
0.000275726 0.0154751 -0.00351315
0.000281626 0.0154815 -0.00351728
0.000288644 0.0154887 -0.00351901
0.00029511 0.0154967 -0.00351826
0.000298683 0.015505 -0.00351398
0.000296119 0.0155122 -0.00350502
0.000282937 0.0155158 -0.00348993
0.000253656 0.0155123 -0.00346728
0.000202132 0.0154964 -0.00343612