# vtk DataFile Version 2.0 
Visualization 
ASCII 
DATASET STRUCTURED_GRID 
DIMENSIONS 21 21 11
POINTS 4851 float
-0.1 -0.1 -0.1
0 -0.1 -0.1
0.1 -0.1 -0.1
0.2 -0.1 -0.1
0.3 -0.1 -0.1
0.4 -0.1 -0.1
0.5 -0.1 -0.1
0.6 -0.1 -0.1
0.7 -0.1 -0.1
0.8 -0.1 -0.1
0.9 -0.1 -0.1
1 -0.1 -0.1
1.1 -0.1 -0.1
1.2 -0.1 -0.1
1.3 -0.1 -0.1
1.4 -0.1 -0.1
1.5 -0.1 -0.1
1.6 -0.1 -0.1
1.7 -0.1 -0.1
1.8 -0.1 -0.1
1.9 -0.1 -0.1
-0.1 0 -0.1
0 0 -0.1
0.1 0 -0.1
0.2 0 -0.1
0.3 0 -0.1
0.4 0 -0.1
0.5 0 -0.1
0.6 0 -0.1
0.7 0 -0.1
0.8 0 -0.1
0.9 0 -0.1
1 0 -0.1
1.1 0 -0.1
1.2 0 -0.1
1.3 0 -0.1
1.4 0 -0.1
1.5 0 -0.1
1.6 0 -0.1
1.7 0 -0.1
1.8 0 -0.1
1.9 0 -0.1
-0.1 0.1 -0.1
0 0.1 -0.1
0.1 0.1 -0.1
0.2 0.1 -0.1
0.3 0.1 -0.1
0.4 0.1 -0.1
0.5 0.1 -0.1
0.6 0.1 -0.1
0.7 0.1 -0.1
0.8 0.1 -0.1
0.9 0.1 -0.1
1 0.1 -0.1
1.1 0.1 -0.1
1.2 0.1 -0.1
1.3 0.1 -0.1
1.4 0.1 -0.1
1.5 0.1 -0.1
1.6 0.1 -0.1
1.7 0.1 -0.1
1.8 0.1 -0.1
1.9 0.1 -0.1
-0.1 0.2 -0.1
0 0.2 -0.1
0.1 0.2 -0.1
0.2 0.2 -0.1
0.3 0.2 -0.1
0.4 0.2 -0.1
0.5 0.2 -0.1
0.6 0.2 -0.1
0.7 0.2 -0.1
0.8 0.2 -0.1
0.9 0.2 -0.1
1 0.2 -0.1
1.1 0.2 -0.1
1.2 0.2 -0.1
1.3 0.2 -0.1
1.4 0.2 -0.1
1.5 0.2 -0.1
1.6 0.2 -0.1
1.7 0.2 -0.1
1.8 0.2 -0.1
1.9 0.2 -0.1
-0.1 0.3 -0.1
0 0.3 -0.1
0.1 0.3 -0.1
0.2 0.3 -0.1
0.3 0.3 -0.1
0.4 0.3 -0.1
0.5 0.3 -0.1
0.6 0.3 -0.1
0.7 0.3 -0.1
0.8 0.3 -0.1
0.9 0.3 -0.1
1 0.3 -0.1
1.1 0.3 -0.1
1.2 0.3 -0.1
1.3 0.3 -0.1
1.4 0.3 -0.1
1.5 0.3 -0.1
1.6 0.3 -0.1
1.7 0.3 -0.1
1.8 0.3 -0.1
1.9 0.3 -0.1
-0.1 0.4 -0.1
0 0.4 -0.1
0.1 0.4 -0.1
0.2 0.4 -0.1
0.3 0.4 -0.1
0.4 0.4 -0.1
0.5 0.4 -0.1
0.6 0.4 -0.1
0.7 0.4 -0.1
0.8 0.4 -0.1
0.9 0.4 -0.1
1 0.4 -0.1
1.1 0.4 -0.1
1.2 0.4 -0.1
1.3 0.4 -0.1
1.4 0.4 -0.1
1.5 0.4 -0.1
1.6 0.4 -0.1
1.7 0.4 -0.1
1.8 0.4 -0.1
1.9 0.4 -0.1
-0.1 0.5 -0.1
0 0.5 -0.1
0.1 0.5 -0.1
0.2 0.5 -0.1
0.3 0.5 -0.1
0.4 0.5 -0.1
0.5 0.5 -0.1
0.6 0.5 -0.1
0.7 0.5 -0.1
0.8 0.5 -0.1
0.9 0.5 -0.1
1 0.5 -0.1
1.1 0.5 -0.1
1.2 0.5 -0.1
1.3 0.5 -0.1
1.4 0.5 -0.1
1.5 0.5 -0.1
1.6 0.5 -0.1
1.7 0.5 -0.1
1.8 0.5 -0.1
1.9 0.5 -0.1
-0.1 0.6 -0.1
0 0.6 -0.1
0.1 0.6 -0.1
0.2 0.6 -0.1
0.3 0.6 -0.1
0.4 0.6 -0.1
0.5 0.6 -0.1
0.6 0.6 -0.1
0.7 0.6 -0.1
0.8 0.6 -0.1
0.9 0.6 -0.1
1 0.6 -0.1
1.1 0.6 -0.1
1.2 0.6 -0.1
1.3 0.6 -0.1
1.4 0.6 -0.1
1.5 0.6 -0.1
1.6 0.6 -0.1
1.7 0.6 -0.1
1.8 0.6 -0.1
1.9 0.6 -0.1
-0.1 0.7 -0.1
0 0.7 -0.1
0.1 0.7 -0.1
0.2 0.7 -0.1
0.3 0.7 -0.1
0.4 0.7 -0.1
0.5 0.7 -0.1
0.6 0.7 -0.1
0.7 0.7 -0.1
0.8 0.7 -0.1
0.9 0.7 -0.1
1 0.7 -0.1
1.1 0.7 -0.1
1.2 0.7 -0.1
1.3 0.7 -0.1
1.4 0.7 -0.1
1.5 0.7 -0.1
1.6 0.7 -0.1
1.7 0.7 -0.1
1.8 0.7 -0.1
1.9 0.7 -0.1
-0.1 0.8 -0.1
0 0.8 -0.1
0.1 0.8 -0.1
0.2 0.8 -0.1
0.3 0.8 -0.1
0.4 0.8 -0.1
0.5 0.8 -0.1
0.6 0.8 -0.1
0.7 0.8 -0.1
0.8 0.8 -0.1
0.9 0.8 -0.1
1 0.8 -0.1
1.1 0.8 -0.1
1.2 0.8 -0.1
1.3 0.8 -0.1
1.4 0.8 -0.1
1.5 0.8 -0.1
1.6 0.8 -0.1
1.7 0.8 -0.1
1.8 0.8 -0.1
1.9 0.8 -0.1
-0.1 0.9 -0.1
0 0.9 -0.1
0.1 0.9 -0.1
0.2 0.9 -0.1
0.3 0.9 -0.1
0.4 0.9 -0.1
0.5 0.9 -0.1
0.6 0.9 -0.1
0.7 0.9 -0.1
0.8 0.9 -0.1
0.9 0.9 -0.1
1 0.9 -0.1
1.1 0.9 -0.1
1.2 0.9 -0.1
1.3 0.9 -0.1
1.4 0.9 -0.1
1.5 0.9 -0.1
1.6 0.9 -0.1
1.7 0.9 -0.1
1.8 0.9 -0.1
1.9 0.9 -0.1
-0.1 1 -0.1
0 1 -0.1
0.1 1 -0.1
0.2 1 -0.1
0.3 1 -0.1
0.4 1 -0.1
0.5 1 -0.1
0.6 1 -0.1
0.7 1 -0.1
0.8 1 -0.1
0.9 1 -0.1
1 1 -0.1
1.1 1 -0.1
1.2 1 -0.1
1.3 1 -0.1
1.4 1 -0.1
1.5 1 -0.1
1.6 1 -0.1
1.7 1 -0.1
1.8 1 -0.1
1.9 1 -0.1
-0.1 1.1 -0.1
0 1.1 -0.1
0.1 1.1 -0.1
0.2 1.1 -0.1
0.3 1.1 -0.1
0.4 1.1 -0.1
0.5 1.1 -0.1
0.6 1.1 -0.1
0.7 1.1 -0.1
0.8 1.1 -0.1
0.9 1.1 -0.1
1 1.1 -0.1
1.1 1.1 -0.1
1.2 1.1 -0.1
1.3 1.1 -0.1
1.4 1.1 -0.1
1.5 1.1 -0.1
1.6 1.1 -0.1
1.7 1.1 -0.1
1.8 1.1 -0.1
1.9 1.1 -0.1
-0.1 1.2 -0.1
0 1.2 -0.1
0.1 1.2 -0.1
0.2 1.2 -0.1
0.3 1.2 -0.1
0.4 1.2 -0.1
0.5 1.2 -0.1
0.6 1.2 -0.1
0.7 1.2 -0.1
0.8 1.2 -0.1
0.9 1.2 -0.1
1 1.2 -0.1
1.1 1.2 -0.1
1.2 1.2 -0.1
1.3 1.2 -0.1
1.4 1.2 -0.1
1.5 1.2 -0.1
1.6 1.2 -0.1
1.7 1.2 -0.1
1.8 1.2 -0.1
1.9 1.2 -0.1
-0.1 1.3 -0.1
0 1.3 -0.1
0.1 1.3 -0.1
0.2 1.3 -0.1
0.3 1.3 -0.1
0.4 1.3 -0.1
0.5 1.3 -0.1
0.6 1.3 -0.1
0.7 1.3 -0.1
0.8 1.3 -0.1
0.9 1.3 -0.1
1 1.3 -0.1
1.1 1.3 -0.1
1.2 1.3 -0.1
1.3 1.3 -0.1
1.4 1.3 -0.1
1.5 1.3 -0.1
1.6 1.3 -0.1
1.7 1.3 -0.1
1.8 1.3 -0.1
1.9 1.3 -0.1
-0.1 1.4 -0.1
0 1.4 -0.1
0.1 1.4 -0.1
0.2 1.4 -0.1
0.3 1.4 -0.1
0.4 1.4 -0.1
0.5 1.4 -0.1
0.6 1.4 -0.1
0.7 1.4 -0.1
0.8 1.4 -0.1
0.9 1.4 -0.1
1 1.4 -0.1
1.1 1.4 -0.1
1.2 1.4 -0.1
1.3 1.4 -0.1
1.4 1.4 -0.1
1.5 1.4 -0.1
1.6 1.4 -0.1
1.7 1.4 -0.1
1.8 1.4 -0.1
1.9 1.4 -0.1
-0.1 1.5 -0.1
0 1.5 -0.1
0.1 1.5 -0.1
0.2 1.5 -0.1
0.3 1.5 -0.1
0.4 1.5 -0.1
0.5 1.5 -0.1
0.6 1.5 -0.1
0.7 1.5 -0.1
0.8 1.5 -0.1
0.9 1.5 -0.1
1 1.5 -0.1
1.1 1.5 -0.1
1.2 1.5 -0.1
1.3 1.5 -0.1
1.4 1.5 -0.1
1.5 1.5 -0.1
1.6 1.5 -0.1
1.7 1.5 -0.1
1.8 1.5 -0.1
1.9 1.5 -0.1
-0.1 1.6 -0.1
0 1.6 -0.1
0.1 1.6 -0.1
0.2 1.6 -0.1
0.3 1.6 -0.1
0.4 1.6 -0.1
0.5 1.6 -0.1
0.6 1.6 -0.1
0.7 1.6 -0.1
0.8 1.6 -0.1
0.9 1.6 -0.1
1 1.6 -0.1
1.1 1.6 -0.1
1.2 1.6 -0.1
1.3 1.6 -0.1
1.4 1.6 -0.1
1.5 1.6 -0.1
1.6 1.6 -0.1
1.7 1.6 -0.1
1.8 1.6 -0.1
1.9 1.6 -0.1
-0.1 1.7 -0.1
0 1.7 -0.1
0.1 1.7 -0.1
0.2 1.7 -0.1
0.3 1.7 -0.1
0.4 1.7 -0.1
0.5 1.7 -0.1
0.6 1.7 -0.1
0.7 1.7 -0.1
0.8 1.7 -0.1
0.9 1.7 -0.1
1 1.7 -0.1
1.1 1.7 -0.1
1.2 1.7 -0.1
1.3 1.7 -0.1
1.4 1.7 -0.1
1.5 1.7 -0.1
1.6 1.7 -0.1
1.7 1.7 -0.1
1.8 1.7 -0.1
1.9 1.7 -0.1
-0.1 1.8 -0.1
0 1.8 -0.1
0.1 1.8 -0.1
0.2 1.8 -0.1
0.3 1.8 -0.1
0.4 1.8 -0.1
0.5 1.8 -0.1
0.6 1.8 -0.1
0.7 1.8 -0.1
0.8 1.8 -0.1
0.9 1.8 -0.1
1 1.8 -0.1
1.1 1.8 -0.1
1.2 1.8 -0.1
1.3 1.8 -0.1
1.4 1.8 -0.1
1.5 1.8 -0.1
1.6 1.8 -0.1
1.7 1.8 -0.1
1.8 1.8 -0.1
1.9 1.8 -0.1
-0.1 1.9 -0.1
0 1.9 -0.1
0.1 1.9 -0.1
0.2 1.9 -0.1
0.3 1.9 -0.1
0.4 1.9 -0.1
0.5 1.9 -0.1
0.6 1.9 -0.1
0.7 1.9 -0.1
0.8 1.9 -0.1
0.9 1.9 -0.1
1 1.9 -0.1
1.1 1.9 -0.1
1.2 1.9 -0.1
1.3 1.9 -0.1
1.4 1.9 -0.1
1.5 1.9 -0.1
1.6 1.9 -0.1
1.7 1.9 -0.1
1.8 1.9 -0.1
1.9 1.9 -0.1
-0.1 -0.1 0
0 -0.1 0
0.1 -0.1 0
0.2 -0.1 0
0.3 -0.1 0
0.4 -0.1 0
0.5 -0.1 0
0.6 -0.1 0
0.7 -0.1 0
0.8 -0.1 0
0.9 -0.1 0
1 -0.1 0
1.1 -0.1 0
1.2 -0.1 0
1.3 -0.1 0
1.4 -0.1 0
1.5 -0.1 0
1.6 -0.1 0
1.7 -0.1 0
1.8 -0.1 0
1.9 -0.1 0
-0.1 0 0
0 0 0
0.1 0 0
0.2 0 0
0.3 0 0
0.4 0 0
0.5 0 0
0.6 0 0
0.7 0 0
0.8 0 0
0.9 0 0
1 0 0
1.1 0 0
1.2 0 0
1.3 0 0
1.4 0 0
1.5 0 0
1.6 0 0
1.7 0 0
1.8 0 0
1.9 0 0
-0.1 0.1 0
0 0.1 0
0.1 0.1 0
0.2 0.1 0
0.3 0.1 0
0.4 0.1 0
0.5 0.1 0
0.6 0.1 0
0.7 0.1 0
0.8 0.1 0
0.9 0.1 0
1 0.1 0
1.1 0.1 0
1.2 0.1 0
1.3 0.1 0
1.4 0.1 0
1.5 0.1 0
1.6 0.1 0
1.7 0.1 0
1.8 0.1 0
1.9 0.1 0
-0.1 0.2 0
0 0.2 0
0.1 0.2 0
0.2 0.2 0
0.3 0.2 0
0.4 0.2 0
0.5 0.2 0
0.6 0.2 0
0.7 0.2 0
0.8 0.2 0
0.9 0.2 0
1 0.2 0
1.1 0.2 0
1.2 0.2 0
1.3 0.2 0
1.4 0.2 0
1.5 0.2 0
1.6 0.2 0
1.7 0.2 0
1.8 0.2 0
1.9 0.2 0
-0.1 0.3 0
0 0.3 0
0.1 0.3 0
0.2 0.3 0
0.3 0.3 0
0.4 0.3 0
0.5 0.3 0
0.6 0.3 0
0.7 0.3 0
0.8 0.3 0
0.9 0.3 0
1 0.3 0
1.1 0.3 0
1.2 0.3 0
1.3 0.3 0
1.4 0.3 0
1.5 0.3 0
1.6 0.3 0
1.7 0.3 0
1.8 0.3 0
1.9 0.3 0
-0.1 0.4 0
0 0.4 0
0.1 0.4 0
0.2 0.4 0
0.3 0.4 0
0.4 0.4 0
0.5 0.4 0
0.6 0.4 0
0.7 0.4 0
0.8 0.4 0
0.9 0.4 0
1 0.4 0
1.1 0.4 0
1.2 0.4 0
1.3 0.4 0
1.4 0.4 0
1.5 0.4 0
1.6 0.4 0
1.7 0.4 0
1.8 0.4 0
1.9 0.4 0
-0.1 0.5 0
0 0.5 0
0.1 0.5 0
0.2 0.5 0
0.3 0.5 0
0.4 0.5 0
0.5 0.5 0
0.6 0.5 0
0.7 0.5 0
0.8 0.5 0
0.9 0.5 0
1 0.5 0
1.1 0.5 0
1.2 0.5 0
1.3 0.5 0
1.4 0.5 0
1.5 0.5 0
1.6 0.5 0
1.7 0.5 0
1.8 0.5 0
1.9 0.5 0
-0.1 0.6 0
0 0.6 0
0.1 0.6 0
0.2 0.6 0
0.3 0.6 0
0.4 0.6 0
0.5 0.6 0
0.6 0.6 0
0.7 0.6 0
0.8 0.6 0
0.9 0.6 0
1 0.6 0
1.1 0.6 0
1.2 0.6 0
1.3 0.6 0
1.4 0.6 0
1.5 0.6 0
1.6 0.6 0
1.7 0.6 0
1.8 0.6 0
1.9 0.6 0
-0.1 0.7 0
0 0.7 0
0.1 0.7 0
0.2 0.7 0
0.3 0.7 0
0.4 0.7 0
0.5 0.7 0
0.6 0.7 0
0.7 0.7 0
0.8 0.7 0
0.9 0.7 0
1 0.7 0
1.1 0.7 0
1.2 0.7 0
1.3 0.7 0
1.4 0.7 0
1.5 0.7 0
1.6 0.7 0
1.7 0.7 0
1.8 0.7 0
1.9 0.7 0
-0.1 0.8 0
0 0.8 0
0.1 0.8 0
0.2 0.8 0
0.3 0.8 0
0.4 0.8 0
0.5 0.8 0
0.6 0.8 0
0.7 0.8 0
0.8 0.8 0
0.9 0.8 0
1 0.8 0
1.1 0.8 0
1.2 0.8 0
1.3 0.8 0
1.4 0.8 0
1.5 0.8 0
1.6 0.8 0
1.7 0.8 0
1.8 0.8 0
1.9 0.8 0
-0.1 0.9 0
0 0.9 0
0.1 0.9 0
0.2 0.9 0
0.3 0.9 0
0.4 0.9 0
0.5 0.9 0
0.6 0.9 0
0.7 0.9 0
0.8 0.9 0
0.9 0.9 0
1 0.9 0
1.1 0.9 0
1.2 0.9 0
1.3 0.9 0
1.4 0.9 0
1.5 0.9 0
1.6 0.9 0
1.7 0.9 0
1.8 0.9 0
1.9 0.9 0
-0.1 1 0
0 1 0
0.1 1 0
0.2 1 0
0.3 1 0
0.4 1 0
0.5 1 0
0.6 1 0
0.7 1 0
0.8 1 0
0.9 1 0
1 1 0
1.1 1 0
1.2 1 0
1.3 1 0
1.4 1 0
1.5 1 0
1.6 1 0
1.7 1 0
1.8 1 0
1.9 1 0
-0.1 1.1 0
0 1.1 0
0.1 1.1 0
0.2 1.1 0
0.3 1.1 0
0.4 1.1 0
0.5 1.1 0
0.6 1.1 0
0.7 1.1 0
0.8 1.1 0
0.9 1.1 0
1 1.1 0
1.1 1.1 0
1.2 1.1 0
1.3 1.1 0
1.4 1.1 0
1.5 1.1 0
1.6 1.1 0
1.7 1.1 0
1.8 1.1 0
1.9 1.1 0
-0.1 1.2 0
0 1.2 0
0.1 1.2 0
0.2 1.2 0
0.3 1.2 0
0.4 1.2 0
0.5 1.2 0
0.6 1.2 0
0.7 1.2 0
0.8 1.2 0
0.9 1.2 0
1 1.2 0
1.1 1.2 0
1.2 1.2 0
1.3 1.2 0
1.4 1.2 0
1.5 1.2 0
1.6 1.2 0
1.7 1.2 0
1.8 1.2 0
1.9 1.2 0
-0.1 1.3 0
0 1.3 0
0.1 1.3 0
0.2 1.3 0
0.3 1.3 0
0.4 1.3 0
0.5 1.3 0
0.6 1.3 0
0.7 1.3 0
0.8 1.3 0
0.9 1.3 0
1 1.3 0
1.1 1.3 0
1.2 1.3 0
1.3 1.3 0
1.4 1.3 0
1.5 1.3 0
1.6 1.3 0
1.7 1.3 0
1.8 1.3 0
1.9 1.3 0
-0.1 1.4 0
0 1.4 0
0.1 1.4 0
0.2 1.4 0
0.3 1.4 0
0.4 1.4 0
0.5 1.4 0
0.6 1.4 0
0.7 1.4 0
0.8 1.4 0
0.9 1.4 0
1 1.4 0
1.1 1.4 0
1.2 1.4 0
1.3 1.4 0
1.4 1.4 0
1.5 1.4 0
1.6 1.4 0
1.7 1.4 0
1.8 1.4 0
1.9 1.4 0
-0.1 1.5 0
0 1.5 0
0.1 1.5 0
0.2 1.5 0
0.3 1.5 0
0.4 1.5 0
0.5 1.5 0
0.6 1.5 0
0.7 1.5 0
0.8 1.5 0
0.9 1.5 0
1 1.5 0
1.1 1.5 0
1.2 1.5 0
1.3 1.5 0
1.4 1.5 0
1.5 1.5 0
1.6 1.5 0
1.7 1.5 0
1.8 1.5 0
1.9 1.5 0
-0.1 1.6 0
0 1.6 0
0.1 1.6 0
0.2 1.6 0
0.3 1.6 0
0.4 1.6 0
0.5 1.6 0
0.6 1.6 0
0.7 1.6 0
0.8 1.6 0
0.9 1.6 0
1 1.6 0
1.1 1.6 0
1.2 1.6 0
1.3 1.6 0
1.4 1.6 0
1.5 1.6 0
1.6 1.6 0
1.7 1.6 0
1.8 1.6 0
1.9 1.6 0
-0.1 1.7 0
0 1.7 0
0.1 1.7 0
0.2 1.7 0
0.3 1.7 0
0.4 1.7 0
0.5 1.7 0
0.6 1.7 0
0.7 1.7 0
0.8 1.7 0
0.9 1.7 0
1 1.7 0
1.1 1.7 0
1.2 1.7 0
1.3 1.7 0
1.4 1.7 0
1.5 1.7 0
1.6 1.7 0
1.7 1.7 0
1.8 1.7 0
1.9 1.7 0
-0.1 1.8 0
0 1.8 0
0.1 1.8 0
0.2 1.8 0
0.3 1.8 0
0.4 1.8 0
0.5 1.8 0
0.6 1.8 0
0.7 1.8 0
0.8 1.8 0
0.9 1.8 0
1 1.8 0
1.1 1.8 0
1.2 1.8 0
1.3 1.8 0
1.4 1.8 0
1.5 1.8 0
1.6 1.8 0
1.7 1.8 0
1.8 1.8 0
1.9 1.8 0
-0.1 1.9 0
0 1.9 0
0.1 1.9 0
0.2 1.9 0
0.3 1.9 0
0.4 1.9 0
0.5 1.9 0
0.6 1.9 0
0.7 1.9 0
0.8 1.9 0
0.9 1.9 0
1 1.9 0
1.1 1.9 0
1.2 1.9 0
1.3 1.9 0
1.4 1.9 0
1.5 1.9 0
1.6 1.9 0
1.7 1.9 0
1.8 1.9 0
[...]
CELL_DATA 4000
VECTORS velocity double 
-2.70979e-05 0.000274067 -0.000246969
-2.9337e-05 0.000326786 -0.000282544
-2.64692e-05 0.000333247 -0.000291794
-1.75778e-05 0.000334536 -0.000297284
-2.90691e-06 0.000335011 -0.00030056
1.60962e-05 0.000335525 -0.000302467
3.75997e-05 0.000336291 -0.000303512
5.97197e-05 0.000337319 -0.000303905
8.06586e-05 0.000338612 -0.000303706
9.86754e-05 0.000340082 -0.000302837
0.000112049 0.000341644 -0.000301211
0.000119206 0.000343164 -0.000298764
0.000118707 0.000344401 -0.000295511
0.000109655 0.00034515 -0.000291502
9.1832e-05 0.000345056 -0.000286934
6.58516e-05 0.00034382 -0.000282124
3.35086e-05 0.000341168 -0.000277272
-2.24887e-06 0.000336756 -0.000272607
-3.74749e-05 0.000328759 -0.000266871
-1.87374e-05 0.000284317 -0.000232084
-1.48204e-05 0.000795812 -0.000314363
-1.76191e-05 0.000947978 -0.000371471
-1.76979e-05 0.000966452 -0.000385746
-1.08821e-05 0.000970123 -0.00039347
3.55108e-06 0.000971104 -0.000397871
2.43105e-05 0.000971852 -0.00040029
4.93533e-05 0.0009731 -0.000401483
7.64955e-05 0.000975029 -0.000401753
0.00010346 0.00097763 -0.000401219
0.000127981 0.000980791 -0.000399776
0.000147707 0.000984291 -0.000397342
0.000160307 0.000987795 -0.000393815
0.000163639 0.000990742 -0.000389209
0.000155979 0.000992524 -0.000383691
0.000136485 0.000992372 -0.000377393
0.000105346 0.000989399 -0.000370716
6.41484e-05 0.000982795 -0.000364041
1.61276e-05 0.00097151 -0.00035774
-3.21247e-05 0.000948538 -0.000349946
-1.60624e-05 0.000804899 -0.000300876
-8.61092e-07 0.00148773 -0.000384717
9.1298e-07 0.00179511 -0.000456468
5.72526e-07 0.00183288 -0.000474515
5.85496e-06 0.00184043 -0.000484258
1.88987e-05 0.00184222 -0.000489751
3.88789e-05 0.00184306 -0.000492676
6.38317e-05 0.00184442 -0.000494032
9.15024e-05 0.00184679 -0.000494225
0.00011952 0.00185023 -0.00049339
0.000145407 0.00185461 -0.00049144
0.000166552 0.00185959 -0.000488265
0.000180237 0.00186462 -0.000483777
0.000183912 0.00186888 -0.00047793
0.00017541 0.00187124 -0.000470921
0.000153319 0.00187041 -0.000462966
0.000117429 0.00186499 -0.00045447
6.90385e-05 0.00185359 -0.000445981
1.13621e-05 0.00183388 -0.000438007
-4.65269e-05 0.00178949 -0.000428717
-2.32634e-05 0.00149272 -0.00036971
1.51548e-05 0.00233755 -0.000474207
2.38972e-05 0.00286156 -0.00056211
2.42658e-05 0.00292779 -0.000583898
2.80813e-05 0.00294117 -0.000595808
3.94175e-05 0.00294433 -0.000602551
5.80992e-05 0.00294526 -0.000606133
8.2364e-05 0.00294645 -0.000607734
0.000109923 0.00294875 -0.000607918
0.000138299 0.00295238 -0.000606858
0.000164795 0.00295721 -0.000604451
0.000186524 0.00296285 -0.000600546
0.000200448 0.00296855 -0.000595049
0.00020344 0.00297319 -0.00058791
0.000192843 0.00297525 -0.000579196
0.000166775 0.00297292 -0.000569299
0.000124598 0.00296406 -0.000558729
6.71205e-05 0.00294665 -0.000548274
-1.91297e-06 0.00291699 -0.000538534
-6.91011e-05 0.00284365 -0.000527643
-3.45505e-05 0.00233508 -0.000456412
3.39558e-05 0.00335119 -0.000577836
5.2041e-05 0.00415901 -0.000683351
5.40261e-05 0.00426486 -0.000708724
5.63059e-05 0.00428653 -0.000722837
6.54125e-05 0.00429185 -0.00073091
8.21028e-05 0.00429302 -0.000735234
0.000104918 0.00429379 -0.000737184
0.000131614 0.00429553 -0.00073745
0.000159609 0.00429864 -0.000736239
0.000186061 0.00430307 -0.000733449
0.000207757 0.0043084 -0.000728909
0.000221242 0.00431374 -0.000722396
0.000222908 0.00431772 -0.000713902
0.00020952 0.00431842 -0.000703472
0.000178448 0.00431344 -0.000691625
0.000128642 0.00430013 -0.000678772
6.08608e-05 0.00427561 -0.000666018
-2.04742e-05 0.00423393 -0.000654529
-9.66556e-05 0.00412196 -0.000642302
-4.83278e-05 0.00333736 -0.000557231
5.60865e-05 0.00453756 -0.000690749
8.61837e-05 0.00570212 -0.000814456
9.08568e-05 0.00586064 -0.000842996
9.15953e-05 0.00589348 -0.000859205
9.7862e-05 0.0059019 -0.000868652
0.000111691 0.00590355 -0.00087377
0.000132076 0.00590377 -0.000876154
0.000156893 0.00590452 -0.000876594
0.000183518 0.0059065 -0.00087537
0.000208967 0.00590974 -0.000872324
0.000229738 0.00591384 -0.000867251
0.000241972 0.00591783 -0.000859845
0.000241502 0.00592013 -0.000850113
0.000224396 0.00591841 -0.000837963
0.000187438 0.00590965 -0.000824076
0.000128888 0.00589066 -0.000809107
4.94672e-05 0.00585774 -0.000794141
-4.52014e-05 0.00580171 -0.000780911
-0.00012994 0.00563963 -0.00076754
-6.49699e-05 0.00450884 -0.000667653
8.18992e-05 0.00590204 -0.000808306
0.000126948 0.00750137 -0.000949829
0.000135525 0.00772721 -0.000980859
0.000134751 0.0077744 -0.000998883
0.000137559 0.0077869 -0.00100965
0.000147598 0.00778934 -0.00101558
0.000164466 0.00778896 -0.00101846
0.00018627 0.00778847 -0.00101921
0.00021039 0.00778884 -0.00101813
0.00023373 0.00779029 -0.001015
0.000252543 0.00779248 -0.00100962
0.000262585 0.00779438 -0.00100154
0.000259054 0.00779414 -0.000990832
0.000237213 0.0077891 -0.00097732
0.000193219 0.00777572 -0.000961453
0.000124736 0.00775009 -0.000944296
3.24224e-05 0.00770756 -0.000927245
-7.66137e-05 0.00763439 -0.000912596
-0.000169652 0.0074089 -0.000898466
-8.48258e-05 0.00585606 -0.00078325
0.000111407 0.00744375 -0.000926019
0.00017441 0.00955974 -0.00108407
0.000188162 0.00986867 -0.0011166
0.000185934 0.00993341 -0.00113598
0.000184708 0.00995085 -0.00114786
0.000190047 0.00995439 -0.00115459
0.000202364 0.00995346 -0.00115804
0.000220022 0.0099516 -0.00115922
0.000240525 0.0099502 -0.00115847
0.000260719 0.00994965 -0.00115553
0.000276593 0.00994964 -0.00115018
0.00028346 0.00994916 -0.0011418
0.000275915 0.00994607 -0.00113035
0.000248432 0.00993733 -0.00111584
0.000196336 0.009919 -0.00109851
0.000116658 0.00988631 -0.00107949
9.99503e-06 0.0098333 -0.0010606
-0.000114561 0.00974009 -0.00104482
-0.000215867 0.00943605 -0.00103049
-0.000107934 0.00738057 -0.000899853
0.000144213 0.00915531 -0.00104008
0.000227841 0.011872 -0.00121267
0.000247891 0.0122803 -0.00124537
0.000244242 0.0123654 -0.00126543
0.000238472 0.0123883 -0.00127812
0.000238341 0.012393 -0.00128552
0.000245211 0.0123917 -0.00128956
0.00025787 0.0123886 -0.00129128
0.00027393 0.0123856 -0.00129107
0.000290142 0.0123832 -0.00128862
0.000302359 0.0123812 -0.00128363
0.000305351 0.0123786 -0.00127558
0.000293095 0.0123733 -0.00126401
0.000259336 0.0123616 -0.0012489
0.000198337 0.012339 -0.00123064
0.000106324 0.0122997 -0.00121032
-1.6163e-05 0.0122362 -0.00119009
-0.000157699 0.0121204 -0.00117353
-0.000267285 0.0117213 -0.00115958
-0.000133642 0.00907836 -0.00101413
0.000179286 0.0110252 -0.00114861
0.000285351 0.0144268 -0.00133337
0.000312348 0.0149505 -0.00136469
0.000307178 0.0150579 -0.00138456
0.000296442 0.015086 -0.00139759
0.000290361 0.0150917 -0.00140543
0.000291309 0.0150899 -0.00141
0.000298488 0.0150858 -0.00141233
0.000309675 0.0150816 -0.00141285
0.000321554 0.0150781 -0.00141128
0.00032993 0.0150751 -0.00140698
0.000329073 0.0150716 -0.00139977
0.000312232 0.0150655 -0.00138898
0.000272227 0.0150528 -0.00137422
0.000202099 0.0150282 -0.00135586
9.70784e-05 0.0149847 -0.00133501
-4.24854e-05 0.0149121 -0.00131418
-0.000202716 0.0147717 -0.00129757
-0.000321411 0.01426 -0.00128435
-0.000160705 0.0109419 -0.00112463
0.000214832 0.0130437 -0.00125361
0.000343518 0.0172132 -0.00144867
0.000377107 0.0178669 -0.00147698
0.000369993 0.0179966 -0.00149556
0.000354018 0.0180285 -0.00150831
0.00034185 0.0180344 -0.00151626
0.000336909 0.018032 -0.00152115
0.000338737 0.0180273 -0.0015241
0.000345386 0.0180226 -0.00152537
0.00035343 0.0180189 -0.00152509
0.000358571 0.0180163 -0.00152227
0.000354861 0.0180141 -0.00151646
0.000334752 0.01801 -0.00150713
0.000289888 0.0180001 -0.0014937
0.000211762 0.017978 -0.00147638
9.41219e-05 0.0179351 -0.0014561
-6.32971e-05 0.0178574 -0.00143555
-0.000244035 0.0176921 -0.00141979
-0.00037379 0.0170498 -0.00140793
-0.000186895 0.0129657 -0.00123364
0.000248082 0.0152136 -0.00136412
0.000396747 0.0202328 -0.00156952
0.000434873 0.021028 -0.00159334
0.000424741 0.0211776 -0.00160942
0.000403346 0.0212101 -0.00162103
0.00038552 0.0212143 -0.00162858
0.000375447 0.0212107 -0.00163353
0.000372842 0.0212055 -0.00163714
0.000376015 0.021201 -0.00163921
0.000381756 0.0211982 -0.00164006
0.00038564 0.0211979 -0.00163904
0.000381534 0.0211997 -0.00163536
0.000361282 0.0212019 -0.00162832
0.000315092 0.0212003 -0.00161731
0.000232439 0.021188 -0.0016023
0.000104639 0.0211541 -0.00158399
-7.01844e-05 0.0210794 -0.00156502
-0.000273304 0.0208922 -0.00155084
-0.000417738 0.0201018 -0.00154072
-0.000208869 0.015157 -0.00135037
0.000274788 0.0175696 -0.00150132
0.000436279 0.0235215 -0.00172138
0.000474166 0.0244645 -0.00173966
0.000458971 0.0246272 -0.00175196
0.00043208 0.0246546 -0.0017615
0.000409584 0.0246543 -0.00176807
0.000395926 0.0246482 -0.00177258
0.000390832 0.0246421 -0.00177651
0.000392648 0.0246381 -0.0017796
0.000398566 0.0246374 -0.00178172
0.000404564 0.0246412 -0.00178248
0.000404454 0.02465 -0.00178127
0.000389627 0.0246629 -0.00177728
0.000348748 0.0246769 -0.00176981
0.00026871 0.0246844 -0.00175846
0.000137002 0.0246723 -0.00174373
-5.18131e-05 0.0246145 -0.00172798
-0.000278499 0.0244143 -0.00171646
-0.000443853 0.0234611 -0.0017079
-0.000221927 0.0175536 -0.00149557
0.000288309 0.0202116 -0.00170766
0.000448332 0.0271867 -0.00195508
0.000477034 0.0282754 -0.00196772
0.000453366 0.0284381 -0.00197496
0.000421147 0.0284518 -0.0019813
0.000395912 0.0284425 -0.00198622
0.000381173 0.0284322 -0.00198999
0.000376516 0.0284246 -0.00199347
0.000380295 0.0284209 -0.00199698
0.000390211 0.0284225 -0.00200024
0.000402939 0.0284313 -0.00200283
0.000412887 0.028449 -0.00200422
0.000411574 0.0284768 -0.00200365
0.000386503 0.0285132 -0.00200049
0.000321489 0.0285524 -0.00199402
0.000198439 0.0285798 -0.00198445
5.02446e-06 0.0285608 -0.00197354
-0.000243624 0.0283667 -0.00196593
-0.000438551 0.0272429 -0.00195825
-0.000219276 0.0202552 -0.0017106
0.000277313 0.0233666 -0.00206652
0.000410059 0.0314767 -0.0023697
0.000414732 0.0326943 -0.00237808
0.000377778 0.0328352 -0.00237914
0.000341086 0.0328231 -0.00238111
0.000316564 0.0327994 -0.00238325
0.000304954 0.0327822 -0.00238581
0.000304912 0.0327718 -0.00238876
0.000314907 0.0327676 -0.00239222
0.000333462 0.0327706 -0.00239601
0.000358386 0.0327836 -0.00239988
0.000385669 0.0328102 -0.00240344
0.000408066 0.0328541 -0.00240613
0.000413299 0.0329178 -0.00240738
0.000382514 0.0329995 -0.00240652
0.000290505 0.0330866 -0.00240342
0.000112964 0.0331377 -0.002399
-0.000148125 0.032985 -0.00239656
-0.000382695 0.0316987 -0.00238785
-0.000191348 0.0234831 -0.0020767
0.000220226 0.0275177 -0.00274906
0.000280719 0.0369204 -0.00316718
0.000238695 0.0382247 -0.00317491
0.000183198 0.0383102 -0.00316867
0.000145026 0.0382575 -0.00316543
0.000126998 0.0382141 -0.00316397
0.000125072 0.0381879 -0.00316419
0.000135899 0.0381728 -0.00316583
0.000157886 0.0381661 -0.00316853
0.000190617 0.0381683 -0.00317209
0.000233678 0.0381828 -0.00317641
0.000285796 0.0382147 -0.00318124
0.000342843 0.0382713 -0.00318641
0.00039548 0.0383607 -0.00319145
0.000424997 0.038489 -0.00319606
0.000399996 0.0386527 -0.00319988
0.00027845 0.0388116 -0.00320323
3.34227e-05 0.0387586 -0.00320729
-0.000246557 0.037351 -0.0031941
-0.000123279 0.0277042 -0.00276164
7.03171e-05 0.0337034 -0.00413567
-1.89966e-05 0.0446397 -0.00479102
-0.000138706 0.0459438 -0.00480505
-0.000214844 0.0459281 -0.00479035
-0.000245364 0.045821 -0.00478043
-0.000245282 0.0457542 -0.00477477
-0.000226392 0.0457172 -0.00477215
-0.000194605 0.0456958 -0.00477168
-0.000151636 0.0456842 -0.00477276
-9.69189e-05 0.0456823 -0.00477519
-2.86414e-05 0.0456933 -0.00477887
5.55378e-05 0.0457236 -0.00478378
0.000157095 0.0457832 -0.00478994
0.000273807 0.0458864 -0.00479736
0.000393943 0.0460508 -0.00480611
0.000487003 0.0462916 -0.00481607
0.000493495 0.0465887 -0.00482735
0.000335696 0.0467177 -0.00483862
2.63425e-05 0.0452953 -0.00481519
1.31713e-05 0.0339249 -0.00414289
-0.000286567 0.0442013 -0.0070737
-0.000656484 0.0570087 -0.00820083
-0.000884002 0.0581515 -0.00823238
-0.000966187 0.0579884 -0.00820992
-0.000962573 0.0578236 -0.0081926
-0.000917186 0.0577357 -0.0081818
-0.000852362 0.0576884 -0.00817554
-0.00077696 0.0576596 -0.00817225
-0.000693059 0.0576412 -0.00817102
-0.000599351 0.057632 -0.00817151
-0.000491972 0.0576346 -0.00817359
-0.000364811 0.0576548 -0.00817738
-0.000209457 0.0577034 -0.00818315
-1.64314e-05 0.0577979 -0.00819125
0.000220319 0.0579663 -0.00820206
0.000490305 0.0582483 -0.00821594
0.00073846 0.05867 -0.00823304
0.00082809 0.0590544 -0.00825004
0.000585628 0.0578356 -0.00820836
0.000292814 0.0443864 -0.00707051
-0.0011495 0.0619239 -0.0112794
-0.00197493 0.0764209 -0.0128952
-0.0022712 0.0771597 -0.0129468
-0.00226589 0.0768595 -0.0129211
-0.00213524 0.0766677 -0.0128975
-0.00196308 0.0765744 -0.0128816
-0.00178232 0.076524 -0.0128716
-0.00160371 0.0764917 -0.0128654
-0.00142912 0.0764693 -0.0128619
-0.00125615 0.0764547 -0.0128605
-0.00107943 0.076449 -0.0128611
-0.000889947 0.076456 -0.0128638
-0.000673322 0.0764836 -0.0128692
-0.00040711 0.0765462 -0.0128778
-5.84204e-05 0.0766716 -0.0128903
0.000412317 0.0769102 -0.0129072
0.00102282 0.0773356 -0.0129274
0.00166256 0.0779048 -0.0129436
0.00185023 0.077195 -0.0128841
0.000925115 0.0620229 -0.011278
-0.0030188 0.0309619 0.0429317
-0.00400717 0.0382105 0.0475143
-0.0038768 0.0385798 0.0475691
-0.00341357 0.0384298 0.0475767
-0.00291674 0.0383338 0.0475999
-0.0024709 0.0382872 0.0476184
-0.00208941 0.038262 0.0476305
-0.00176547 0.0382459 0.0476381
-0.00148808 0.0382347 0.0476426
-0.00124614 0.0382274 0.0476446
-0.00102863 0.0382245 0.0476442
-0.000823225 0.038228 0.0476409
-0.000613579 0.0382418 0.0476336
-0.000373539 0.0382731 0.0476207
-5.62869e-05 0.0383358 0.0475999
0.000427776 0.0384551 0.0475694
0.00124644 0.0386678 0.047533
0.00262785 0.0389524 0.0475145
0.00424848 0.0385975 0.0474561
0.00212424 0.0310115 0.04291
-3.27108e-05 0.000277092 -0.000559294
-4.43161e-05 0.000332341 -0.00066998
-4.71444e-05 0.000337077 -0.000695596
-4.04347e-05 0.000337204 -0.000709582
-2.50957e-05 0.000337095 -0.000718202
-3.09345e-06 0.000337427 -0.000723675
2.33624e-05 0.00033828 -0.000727142
5.20471e-05 0.000339612 -0.000729098
8.08616e-05 0.000341367 -0.000729521
0.000107667 0.00034347 -0.000728221
0.000130253 0.000345804 -0.000724911
0.000146447 0.000348241 -0.000719323
0.000154162 0.000350511 -0.00071146
0.000151742 0.000352269 -0.000701418
0.000138218 0.000353208 -0.00068968
0.000113786 0.000352935 -0.000676861
7.99079e-05 0.000350987 -0.000663796
3.96075e-05 0.000346809 -0.000651023
-2.96465e-06 0.000337922 -0.000634811
-1.48233e-06 0.000285185 -0.000538511
-2.5584e-05 0.000824249 -0.00076362
-4.07736e-05 0.00099727 -0.000941218
-4.8544e-05 0.00101447 -0.000981948
-4.52049e-05 0.00101578 -0.00100233
-3.06407e-05 0.00101531 -0.00101419
-6.56333e-06 0.00101547 -0.0010213
2.47229e-05 0.00101675 -0.00102546
6.07166e-05 0.00101919 -0.00102744
9.88581e-05 0.00102276 -0.00102732
0.000136363 0.0010273 -0.00102482
0.000170264 0.00103257 -0.0010196
0.000197373 0.0010382 -0.0010113
0.000214449 0.00104357 -0.000999866
0.000218742 0.00104789 -0.000985478
0.000208167 0.00105022 -0.000968714
0.000181913 0.00104949 -0.000950341
0.000140745 0.00104447 -0.000931474
8.75624e-05 0.00103356 -0.000912598
2.77546e-05 0.00100693 -0.000886975
1.38773e-05 0.000834006 -0.000738252
-1.34051e-05 0.00158448 -0.000968012
-2.51196e-05 0.00195212 -0.00119657
-3.34891e-05 0.0019926 -0.00124977
-3.15046e-05 0.00199713 -0.00127591
-1.78445e-05 0.00199662 -0.00129069
6.1135e-06 0.00199633 -0.00129916
3.81632e-05 0.00199756 -0.00130379
7.57985e-05 0.0020006 -0.00130562
0.000116377 0.00200542 -0.00130486
0.000156954 0.00201188 -0.00130119
0.000194256 0.00201964 -0.00129417
0.000224702 0.00202805 -0.00128341
0.000244502 0.00203616 -0.00126877
0.000250235 0.00204269 -0.00125037
0.000239079 0.00204589 -0.00122892
0.000209447 0.00204392 -0.00120531
0.000161464 0.0020346 -0.00118074
9.72955e-05 0.00201449 -0.00115609
2.41992e-05 0.00196037 -0.00112276
1.20996e-05 0.00159337 -0.000934481
2.12958e-06 0.0025575 -0.00122441
-3.07496e-06 0.00320922 -0.00151124
-1.06171e-05 0.00328734 -0.00157777
-9.47556e-06 0.00329806 -0.00161028
3.36591e-06 0.00329826 -0.00162841
2.70956e-05 0.00329751 -0.00163852
5.96161e-05 0.00329829 -0.00164379
9.84194e-05 0.00330126 -0.00164561
0.000140805 0.00330656 -0.00164427
0.00018365 0.00331403 -0.00163945
0.000223362 0.00332328 -0.00163058
0.000255984 0.00333351 -0.00161715
0.000277185 0.00334334 -0.00159896
0.000282694 0.00335097 -0.00157608
0.00026895 0.00335389 -0.00154923
0.00023354 0.00334943 -0.00151957
0.000175846 0.00333431 -0.0014886
9.78854e-05 0.00330227 -0.00145736
1.09007e-05 0.00320804 -0.00141571
5.45035e-06 0.00256094 -0.00118094
2.15055e-05 0.00375965 -0.00152193
2.59287e-05 0.00479839 -0.00187391
2.05411e-05 0.00493246 -0.00195437
2.10722e-05 0.00495332 -0.00199361
3.27746e-05 0.00495536 -0.0020154
5.56822e-05 0.00495435 -0.00202737
8.79713e-05 0.00495434 -0.00203345
0.000127199 0.00495659 -0.00203543
0.0001706 0.00496142 -0.00203366
0.000214936 0.0049688 -0.00202777
0.000256388 0.00497831 -0.00201714
0.000290443 0.004989 -0.00200107
0.000312207 0.00499914 -0.00197916
0.000316541 0.00500651 -0.0019515
0.000299069 0.0050077 -0.00191885
0.000256386 0.00499903 -0.00188256
0.000187071 0.00497613 -0.00184462
9.33142e-05 0.00492861 -0.00180657
-8.17343e-06 0.00477809 -0.00175635
-4.08672e-06 0.00375212 -0.00146857
4.55537e-05 0.00520971 -0.00184866
6.326e-05 0.00675196 -0.00227015
6.16407e-05 0.00696431 -0.00236446
6.18486e-05 0.00700029 -0.00241046
7.19871e-05 0.00700566 -0.00243602
9.324e-05 0.00700474 -0.00245003
0.000124245 0.00700374 -0.0024571
0.000162682 0.00700464 -0.00245943
0.000205868 0.0070081 -0.0024575
0.000250462 0.00701426 -0.00245083
0.00029242 0.00702268 -0.00243864
0.000326733 0.00703237 -0.00242014
0.000347982 0.00704126 -0.00239464
0.000349953 0.00704657 -0.00236233
0.000327278 0.00704439 -0.00232381
0.000275696 0.00702982 -0.00228069
0.000192927 0.00699691 -0.00223549
8.15291e-05 0.00692941 -0.00219054
-3.48899e-05 0.00670265 -0.00213171
-1.74449e-05 0.0051859 -0.00178606
7.49765e-05 0.00692194 -0.00219266
0.000110125 0.00909698 -0.00268519
0.000114214 0.00941382 -0.0027925
0.000114504 0.00947079 -0.00284489
0.00012264 0.00948125 -0.00287412
0.000141317 0.00948094 -0.00289019
0.00016978 0.00947885 -0.00289845
0.000206026 0.00947795 -0.0029014
0.00024749 0.00947927 -0.00289962
0.000290757 0.00948318 -0.00289265
0.000331682 0.00948931 -0.00287941
0.000364727 0.00949664 -0.00285907
0.000383848 0.00950293 -0.00283048
0.000382072 0.00950463 -0.00279378
0.000352681 0.00949721 -0.00274966
0.000290322 0.00947483 -0.00269986
0.00019193 0.00942958 -0.00264744
6.09151e-05 0.00933688 -0.00259564
-7.08277e-05 0.00900997 -0.00252842
-3.54138e-05 0.00687757 -0.00212205
0.000110075 0.00890241 -0.00254152
0.000167137 0.0118505 -0.00310374
0.000179057 0.0123015 -0.0032223
0.000179953 0.0123859 -0.00328015
0.000185672 0.0124034 -0.00331267
0.000200833 0.0124042 -0.00333072
0.000225526 0.0124012 -0.00334024
0.000258095 0.0123982 -0.00334413
0.000296227 0.0123969 -0.00334296
0.000336515 0.012398 -0.00333633
0.000374772 0.0124011 -0.00332276
0.000405011 0.012405 -0.00330144
0.000420317 0.0124075 -0.00327095
0.000412989 0.0124046 -0.00323088
0.000375125 0.0123907 -0.00318191
0.00030006 0.012359 -0.00312602
0.00018381 0.0122992 -0.00306688
3.09542e-05 0.0121755 -0.0030086
-0.000116499 0.0117206 -0.00293343
-5.82495e-05 0.0088356 -0.002465
0.000150595 0.0111473 -0.0028835
0.000233921 0.0150169 -0.00351135
0.000255716 0.0156344 -0.00363845
0.000257729 0.0157531 -0.00370025
0.000260679 0.0157791 -0.00373528
0.000271484 0.0157817 -0.003755
0.000291278 0.0157779 -0.00376579
0.000318892 0.0157729 -0.00377084
0.000352317 0.0157691 -0.00377079
0.00038819 0.015767 -0.00376532
0.000422126 0.0157669 -0.00375264
0.000448058 0.0157673 -0.00373148
0.000458236 0.0157656 -0.00370041
0.000443919 0.0157577 -0.00365857
0.000395951 0.0157372 -0.00360631