# vtk DataFile Version 2.0 
Visualization 
ASCII 
DATASET STRUCTURED_GRID 
DIMENSIONS 21 21 11
POINTS 4851 float
-0.1 -0.1 0.9
0 -0.1 0.9
0.1 -0.1 0.9
0.2 -0.1 0.9
0.3 -0.1 0.9
0.4 -0.1 0.9
0.5 -0.1 0.9
0.6 -0.1 0.9
0.7 -0.1 0.9
0.8 -0.1 0.9
0.9 -0.1 0.9
1 -0.1 0.9
1.1 -0.1 0.9
1.2 -0.1 0.9
1.3 -0.1 0.9
1.4 -0.1 0.9
1.5 -0.1 0.9
1.6 -0.1 0.9
1.7 -0.1 0.9
1.8 -0.1 0.9
1.9 -0.1 0.9
-0.1 0 0.9
0 0 0.9
0.1 0 0.9
0.2 0 0.9
0.3 0 0.9
0.4 0 0.9
0.5 0 0.9
0.6 0 0.9
0.7 0 0.9
0.8 0 0.9
0.9 0 0.9
1 0 0.9
1.1 0 0.9
1.2 0 0.9
1.3 0 0.9
1.4 0 0.9
1.5 0 0.9
1.6 0 0.9
1.7 0 0.9
1.8 0 0.9
1.9 0 0.9
-0.1 0.1 0.9
0 0.1 0.9
0.1 0.1 0.9
0.2 0.1 0.9
0.3 0.1 0.9
0.4 0.1 0.9
0.5 0.1 0.9
0.6 0.1 0.9
0.7 0.1 0.9
0.8 0.1 0.9
0.9 0.1 0.9
1 0.1 0.9
1.1 0.1 0.9
1.2 0.1 0.9
1.3 0.1 0.9
1.4 0.1 0.9
1.5 0.1 0.9
1.6 0.1 0.9
1.7 0.1 0.9
1.8 0.1 0.9
1.9 0.1 0.9
-0.1 0.2 0.9
0 0.2 0.9
0.1 0.2 0.9
0.2 0.2 0.9
0.3 0.2 0.9
0.4 0.2 0.9
0.5 0.2 0.9
0.6 0.2 0.9
0.7 0.2 0.9
0.8 0.2 0.9
0.9 0.2 0.9
1 0.2 0.9
1.1 0.2 0.9
1.2 0.2 0.9
1.3 0.2 0.9
1.4 0.2 0.9
1.5 0.2 0.9
1.6 0.2 0.9
1.7 0.2 0.9
1.8 0.2 0.9
1.9 0.2 0.9
-0.1 0.3 0.9
0 0.3 0.9
0.1 0.3 0.9
0.2 0.3 0.9
0.3 0.3 0.9
0.4 0.3 0.9
0.5 0.3 0.9
0.6 0.3 0.9
0.7 0.3 0.9
0.8 0.3 0.9
0.9 0.3 0.9
1 0.3 0.9
1.1 0.3 0.9
1.2 0.3 0.9
1.3 0.3 0.9
1.4 0.3 0.9
1.5 0.3 0.9
1.6 0.3 0.9
1.7 0.3 0.9
1.8 0.3 0.9
1.9 0.3 0.9
-0.1 0.4 0.9
0 0.4 0.9
0.1 0.4 0.9
0.2 0.4 0.9
0.3 0.4 0.9
0.4 0.4 0.9
0.5 0.4 0.9
0.6 0.4 0.9
0.7 0.4 0.9
0.8 0.4 0.9
0.9 0.4 0.9
1 0.4 0.9
1.1 0.4 0.9
1.2 0.4 0.9
1.3 0.4 0.9
1.4 0.4 0.9
1.5 0.4 0.9
1.6 0.4 0.9
1.7 0.4 0.9
1.8 0.4 0.9
1.9 0.4 0.9
-0.1 0.5 0.9
0 0.5 0.9
0.1 0.5 0.9
0.2 0.5 0.9
0.3 0.5 0.9
0.4 0.5 0.9
0.5 0.5 0.9
0.6 0.5 0.9
0.7 0.5 0.9
0.8 0.5 0.9
0.9 0.5 0.9
1 0.5 0.9
1.1 0.5 0.9
1.2 0.5 0.9
1.3 0.5 0.9
1.4 0.5 0.9
1.5 0.5 0.9
1.6 0.5 0.9
1.7 0.5 0.9
1.8 0.5 0.9
1.9 0.5 0.9
-0.1 0.6 0.9
0 0.6 0.9
0.1 0.6 0.9
0.2 0.6 0.9
0.3 0.6 0.9
0.4 0.6 0.9
0.5 0.6 0.9
0.6 0.6 0.9
0.7 0.6 0.9
0.8 0.6 0.9
0.9 0.6 0.9
1 0.6 0.9
1.1 0.6 0.9
1.2 0.6 0.9
1.3 0.6 0.9
1.4 0.6 0.9
1.5 0.6 0.9
1.6 0.6 0.9
1.7 0.6 0.9
1.8 0.6 0.9
1.9 0.6 0.9
-0.1 0.7 0.9
0 0.7 0.9
0.1 0.7 0.9
0.2 0.7 0.9
0.3 0.7 0.9
0.4 0.7 0.9
0.5 0.7 0.9
0.6 0.7 0.9
0.7 0.7 0.9
0.8 0.7 0.9
0.9 0.7 0.9
1 0.7 0.9
1.1 0.7 0.9
1.2 0.7 0.9
1.3 0.7 0.9
1.4 0.7 0.9
1.5 0.7 0.9
1.6 0.7 0.9
1.7 0.7 0.9
1.8 0.7 0.9
1.9 0.7 0.9
-0.1 0.8 0.9
0 0.8 0.9
0.1 0.8 0.9
0.2 0.8 0.9
0.3 0.8 0.9
0.4 0.8 0.9
0.5 0.8 0.9
0.6 0.8 0.9
0.7 0.8 0.9
0.8 0.8 0.9
0.9 0.8 0.9
1 0.8 0.9
1.1 0.8 0.9
1.2 0.8 0.9
1.3 0.8 0.9
1.4 0.8 0.9
1.5 0.8 0.9
1.6 0.8 0.9
1.7 0.8 0.9
1.8 0.8 0.9
1.9 0.8 0.9
-0.1 0.9 0.9
0 0.9 0.9
0.1 0.9 0.9
0.2 0.9 0.9
0.3 0.9 0.9
0.4 0.9 0.9
0.5 0.9 0.9
0.6 0.9 0.9
0.7 0.9 0.9
0.8 0.9 0.9
0.9 0.9 0.9
1 0.9 0.9
1.1 0.9 0.9
1.2 0.9 0.9
1.3 0.9 0.9
1.4 0.9 0.9
1.5 0.9 0.9
1.6 0.9 0.9
1.7 0.9 0.9
1.8 0.9 0.9
1.9 0.9 0.9
-0.1 1 0.9
0 1 0.9
0.1 1 0.9
0.2 1 0.9
0.3 1 0.9
0.4 1 0.9
0.5 1 0.9
0.6 1 0.9
0.7 1 0.9
0.8 1 0.9
0.9 1 0.9
1 1 0.9
1.1 1 0.9
1.2 1 0.9
1.3 1 0.9
1.4 1 0.9
1.5 1 0.9
1.6 1 0.9
1.7 1 0.9
1.8 1 0.9
1.9 1 0.9
-0.1 1.1 0.9
0 1.1 0.9
0.1 1.1 0.9
0.2 1.1 0.9
0.3 1.1 0.9
0.4 1.1 0.9
0.5 1.1 0.9
0.6 1.1 0.9
0.7 1.1 0.9
0.8 1.1 0.9
0.9 1.1 0.9
1 1.1 0.9
1.1 1.1 0.9
1.2 1.1 0.9
1.3 1.1 0.9
1.4 1.1 0.9
1.5 1.1 0.9
1.6 1.1 0.9
1.7 1.1 0.9
1.8 1.1 0.9
1.9 1.1 0.9
-0.1 1.2 0.9
0 1.2 0.9
0.1 1.2 0.9
0.2 1.2 0.9
0.3 1.2 0.9
0.4 1.2 0.9
0.5 1.2 0.9
0.6 1.2 0.9
0.7 1.2 0.9
0.8 1.2 0.9
0.9 1.2 0.9
1 1.2 0.9
1.1 1.2 0.9
1.2 1.2 0.9
1.3 1.2 0.9
1.4 1.2 0.9
1.5 1.2 0.9
1.6 1.2 0.9
1.7 1.2 0.9
1.8 1.2 0.9
1.9 1.2 0.9
-0.1 1.3 0.9
0 1.3 0.9
0.1 1.3 0.9
0.2 1.3 0.9
0.3 1.3 0.9
0.4 1.3 0.9
0.5 1.3 0.9
0.6 1.3 0.9
0.7 1.3 0.9
0.8 1.3 0.9
0.9 1.3 0.9
1 1.3 0.9
1.1 1.3 0.9
1.2 1.3 0.9
1.3 1.3 0.9
1.4 1.3 0.9
1.5 1.3 0.9
1.6 1.3 0.9
1.7 1.3 0.9
1.8 1.3 0.9
1.9 1.3 0.9
-0.1 1.4 0.9
0 1.4 0.9
0.1 1.4 0.9
0.2 1.4 0.9
0.3 1.4 0.9
0.4 1.4 0.9
0.5 1.4 0.9
0.6 1.4 0.9
0.7 1.4 0.9
0.8 1.4 0.9
0.9 1.4 0.9
1 1.4 0.9
1.1 1.4 0.9
1.2 1.4 0.9
1.3 1.4 0.9
1.4 1.4 0.9
1.5 1.4 0.9
1.6 1.4 0.9
1.7 1.4 0.9
1.8 1.4 0.9
1.9 1.4 0.9
-0.1 1.5 0.9
0 1.5 0.9
0.1 1.5 0.9
0.2 1.5 0.9
0.3 1.5 0.9
0.4 1.5 0.9
0.5 1.5 0.9
0.6 1.5 0.9
0.7 1.5 0.9
0.8 1.5 0.9
0.9 1.5 0.9
1 1.5 0.9
1.1 1.5 0.9
1.2 1.5 0.9
1.3 1.5 0.9
1.4 1.5 0.9
1.5 1.5 0.9
1.6 1.5 0.9
1.7 1.5 0.9
1.8 1.5 0.9
1.9 1.5 0.9
-0.1 1.6 0.9
0 1.6 0.9
0.1 1.6 0.9
0.2 1.6 0.9
0.3 1.6 0.9
0.4 1.6 0.9
0.5 1.6 0.9
0.6 1.6 0.9
0.7 1.6 0.9
0.8 1.6 0.9
0.9 1.6 0.9
1 1.6 0.9
1.1 1.6 0.9
1.2 1.6 0.9
1.3 1.6 0.9
1.4 1.6 0.9
1.5 1.6 0.9
1.6 1.6 0.9
1.7 1.6 0.9
1.8 1.6 0.9
1.9 1.6 0.9
-0.1 1.7 0.9
0 1.7 0.9
0.1 1.7 0.9
0.2 1.7 0.9
0.3 1.7 0.9
0.4 1.7 0.9
0.5 1.7 0.9
0.6 1.7 0.9
0.7 1.7 0.9
0.8 1.7 0.9
0.9 1.7 0.9
1 1.7 0.9
1.1 1.7 0.9
1.2 1.7 0.9
1.3 1.7 0.9
1.4 1.7 0.9
1.5 1.7 0.9
1.6 1.7 0.9
1.7 1.7 0.9
1.8 1.7 0.9
1.9 1.7 0.9
-0.1 1.8 0.9
0 1.8 0.9
0.1 1.8 0.9
0.2 1.8 0.9
0.3 1.8 0.9
0.4 1.8 0.9
0.5 1.8 0.9
0.6 1.8 0.9
0.7 1.8 0.9
0.8 1.8 0.9
0.9 1.8 0.9
1 1.8 0.9
1.1 1.8 0.9
1.2 1.8 0.9
1.3 1.8 0.9
1.4 1.8 0.9
1.5 1.8 0.9
1.6 1.8 0.9
1.7 1.8 0.9
1.8 1.8 0.9
1.9 1.8 0.9
-0.1 1.9 0.9
0 1.9 0.9
0.1 1.9 0.9
0.2 1.9 0.9
0.3 1.9 0.9
0.4 1.9 0.9
0.5 1.9 0.9
0.6 1.9 0.9
0.7 1.9 0.9
0.8 1.9 0.9
0.9 1.9 0.9
1 1.9 0.9
1.1 1.9 0.9
1.2 1.9 0.9
1.3 1.9 0.9
1.4 1.9 0.9
1.5 1.9 0.9
1.6 1.9 0.9
1.7 1.9 0.9
1.8 1.9 0.9
1.9 1.9 0.9
-0.1 -0.1 1
0 -0.1 1
0.1 -0.1 1
0.2 -0.1 1
0.3 -0.1 1
0.4 -0.1 1
0.5 -0.1 1
0.6 -0.1 1
0.7 -0.1 1
0.8 -0.1 1
0.9 -0.1 1
1 -0.1 1
1.1 -0.1 1
1.2 -0.1 1
1.3 -0.1 1
1.4 -0.1 1
1.5 -0.1 1
1.6 -0.1 1
1.7 -0.1 1
1.8 -0.1 1
1.9 -0.1 1
-0.1 0 1
0 0 1
0.1 0 1
0.2 0 1
0.3 0 1
0.4 0 1
0.5 0 1
0.6 0 1
0.7 0 1
0.8 0 1
0.9 0 1
1 0 1
1.1 0 1
1.2 0 1
1.3 0 1
1.4 0 1
1.5 0 1
1.6 0 1
1.7 0 1
1.8 0 1
1.9 0 1
-0.1 0.1 1
0 0.1 1
0.1 0.1 1
0.2 0.1 1
0.3 0.1 1
0.4 0.1 1
0.5 0.1 1
0.6 0.1 1
0.7 0.1 1
0.8 0.1 1
0.9 0.1 1
1 0.1 1
1.1 0.1 1
1.2 0.1 1
1.3 0.1 1
1.4 0.1 1
1.5 0.1 1
1.6 0.1 1
1.7 0.1 1
1.8 0.1 1
1.9 0.1 1
-0.1 0.2 1
0 0.2 1
0.1 0.2 1
0.2 0.2 1
0.3 0.2 1
0.4 0.2 1
0.5 0.2 1
0.6 0.2 1
0.7 0.2 1
0.8 0.2 1
0.9 0.2 1
1 0.2 1
1.1 0.2 1
1.2 0.2 1
1.3 0.2 1
1.4 0.2 1
1.5 0.2 1
1.6 0.2 1
1.7 0.2 1
1.8 0.2 1
1.9 0.2 1
-0.1 0.3 1
0 0.3 1
0.1 0.3 1
0.2 0.3 1
0.3 0.3 1
0.4 0.3 1
0.5 0.3 1
0.6 0.3 1
0.7 0.3 1
0.8 0.3 1
0.9 0.3 1
1 0.3 1
1.1 0.3 1
1.2 0.3 1
1.3 0.3 1
1.4 0.3 1
1.5 0.3 1
1.6 0.3 1
1.7 0.3 1
1.8 0.3 1
1.9 0.3 1
-0.1 0.4 1
0 0.4 1
0.1 0.4 1
0.2 0.4 1
0.3 0.4 1
0.4 0.4 1
0.5 0.4 1
0.6 0.4 1
0.7 0.4 1
0.8 0.4 1
0.9 0.4 1
1 0.4 1
1.1 0.4 1
1.2 0.4 1
1.3 0.4 1
1.4 0.4 1
1.5 0.4 1
1.6 0.4 1
1.7 0.4 1
1.8 0.4 1
1.9 0.4 1
-0.1 0.5 1
0 0.5 1
0.1 0.5 1
0.2 0.5 1
0.3 0.5 1
0.4 0.5 1
0.5 0.5 1
0.6 0.5 1
0.7 0.5 1
0.8 0.5 1
0.9 0.5 1
1 0.5 1
1.1 0.5 1
1.2 0.5 1
1.3 0.5 1
1.4 0.5 1
1.5 0.5 1
1.6 0.5 1
1.7 0.5 1
1.8 0.5 1
1.9 0.5 1
-0.1 0.6 1
0 0.6 1
0.1 0.6 1
0.2 0.6 1
0.3 0.6 1
0.4 0.6 1
0.5 0.6 1
0.6 0.6 1
0.7 0.6 1
0.8 0.6 1
0.9 0.6 1
1 0.6 1
1.1 0.6 1
1.2 0.6 1
1.3 0.6 1
1.4 0.6 1
1.5 0.6 1
1.6 0.6 1
1.7 0.6 1
1.8 0.6 1
1.9 0.6 1
-0.1 0.7 1
0 0.7 1
0.1 0.7 1
0.2 0.7 1
0.3 0.7 1
0.4 0.7 1
0.5 0.7 1
0.6 0.7 1
0.7 0.7 1
0.8 0.7 1
0.9 0.7 1
1 0.7 1
1.1 0.7 1
1.2 0.7 1
1.3 0.7 1
1.4 0.7 1
1.5 0.7 1
1.6 0.7 1
1.7 0.7 1
1.8 0.7 1
1.9 0.7 1
-0.1 0.8 1
0 0.8 1
0.1 0.8 1
0.2 0.8 1
0.3 0.8 1
0.4 0.8 1
0.5 0.8 1
0.6 0.8 1
0.7 0.8 1
0.8 0.8 1
0.9 0.8 1
1 0.8 1
1.1 0.8 1
1.2 0.8 1
1.3 0.8 1
1.4 0.8 1
1.5 0.8 1
1.6 0.8 1
1.7 0.8 1
1.8 0.8 1
1.9 0.8 1
-0.1 0.9 1
0 0.9 1
0.1 0.9 1
0.2 0.9 1
0.3 0.9 1
0.4 0.9 1
0.5 0.9 1
0.6 0.9 1
0.7 0.9 1
0.8 0.9 1
0.9 0.9 1
1 0.9 1
1.1 0.9 1
1.2 0.9 1
1.3 0.9 1
1.4 0.9 1
1.5 0.9 1
1.6 0.9 1
1.7 0.9 1
1.8 0.9 1
1.9 0.9 1
-0.1 1 1
0 1 1
0.1 1 1
0.2 1 1
0.3 1 1
0.4 1 1
0.5 1 1
0.6 1 1
0.7 1 1
0.8 1 1
0.9 1 1
1 1 1
1.1 1 1
1.2 1 1
1.3 1 1
1.4 1 1
1.5 1 1
1.6 1 1
1.7 1 1
1.8 1 1
1.9 1 1
-0.1 1.1 1
0 1.1 1
0.1 1.1 1
0.2 1.1 1
0.3 1.1 1
0.4 1.1 1
0.5 1.1 1
0.6 1.1 1
0.7 1.1 1
0.8 1.1 1
0.9 1.1 1
1 1.1 1
1.1 1.1 1
1.2 1.1 1
1.3 1.1 1
1.4 1.1 1
1.5 1.1 1
1.6 1.1 1
1.7 1.1 1
1.8 1.1 1
1.9 1.1 1
-0.1 1.2 1
0 1.2 1
0.1 1.2 1
0.2 1.2 1
0.3 1.2 1
0.4 1.2 1
0.5 1.2 1
0.6 1.2 1
0.7 1.2 1
0.8 1.2 1
0.9 1.2 1
1 1.2 1
1.1 1.2 1
1.2 1.2 1
1.3 1.2 1
1.4 1.2 1
1.5 1.2 1
1.6 1.2 1
1.7 1.2 1
1.8 1.2 1
1.9 1.2 1
-0.1 1.3 1
0 1.3 1
0.1 1.3 1
0.2 1.3 1
0.3 1.3 1
0.4 1.3 1
0.5 1.3 1
0.6 1.3 1
0.7 1.3 1
0.8 1.3 1
0.9 1.3 1
1 1.3 1
1.1 1.3 1
1.2 1.3 1
1.3 1.3 1
1.4 1.3 1
1.5 1.3 1
1.6 1.3 1
1.7 1.3 1
1.8 1.3 1
1.9 1.3 1
-0.1 1.4 1
0 1.4 1
0.1 1.4 1
0.2 1.4 1
0.3 1.4 1
0.4 1.4 1
0.5 1.4 1
0.6 1.4 1
0.7 1.4 1
0.8 1.4 1
0.9 1.4 1
1 1.4 1
1.1 1.4 1
1.2 1.4 1
1.3 1.4 1
1.4 1.4 1
1.5 1.4 1
1.6 1.4 1
1.7 1.4 1
1.8 1.4 1
1.9 1.4 1
-0.1 1.5 1
0 1.5 1
0.1 1.5 1
0.2 1.5 1
0.3 1.5 1
0.4 1.5 1
0.5 1.5 1
0.6 1.5 1
0.7 1.5 1
0.8 1.5 1
0.9 1.5 1
1 1.5 1
1.1 1.5 1
1.2 1.5 1
1.3 1.5 1
1.4 1.5 1
1.5 1.5 1
1.6 1.5 1
1.7 1.5 1
1.8 1.5 1
1.9 1.5 1
-0.1 1.6 1
0 1.6 1
0.1 1.6 1
0.2 1.6 1
0.3 1.6 1
0.4 1.6 1
0.5 1.6 1
0.6 1.6 1
0.7 1.6 1
0.8 1.6 1
0.9 1.6 1
1 1.6 1
1.1 1.6 1
1.2 1.6 1
1.3 1.6 1
1.4 1.6 1
1.5 1.6 1
1.6 1.6 1
1.7 1.6 1
1.8 1.6 1
1.9 1.6 1
-0.1 1.7 1
0 1.7 1
0.1 1.7 1
0.2 1.7 1
0.3 1.7 1
0.4 1.7 1
0.5 1.7 1
0.6 1.7 1
0.7 1.7 1
0.8 1.7 1
0.9 1.7 1
1 1.7 1
1.1 1.7 1
1.2 1.7 1
1.3 1.7 1
1.4 1.7 1
1.5 1.7 1
1.6 1.7 1
1.7 1.7 1
1.8 1.7 1
1.9 1.7 1
-0.1 1.8 1
0 1.8 1
0.1 1.8 1
0.2 1.8 1
0.3 1.8 1
0.4 1.8 1
0.5 1.8 1
0.6 1.8 1
0.7 1.8 1
0.8 1.8 1
0.9 1.8 1
1 1.8 1
1.1 1.8 1
1.2 1.8 1
1.3 1.8 1
1.4 1.8 1
1.5 1.8 1
1.6 1.8 1
1.7 1.8 1
1.8 1.8 1
1.9 1.8 1
-0.1 1.9 1
0 1.9 1
0.1 1.9 1
0.2 1.9 1
0.3 1.9 1
0.4 1.9 1
0.5 1.9 1
0.6 1.9 1
0.7 1.9 1
0.8 1.9 1
0.9 1.9 1
1 1.9 1
1.1 1.9 1
1.2 1.9 1
1.3 1.9 1
1.4 1.9 1
1.5 1.9 1
1.6 1.9 1
1.7 1.9 1
1.8 1.9 1
1.9 1.9 1
-0.1 -0.1 1.1
0 -0.1 1.1
0.1 -0.1 1.1
0.2 -0.1 1.1
0.3 -0.1 1.1
0.4 -0.1 1.1
0.5 -0.1 1.1
0.6 -0.1 1.1
0.7 -0.1 1.1
0.8 -0.1 1.1
0.9 -0.1 1.1
1 -0.1 1.1
1.1 -0.1 1.1
1.2 -0.1 1.1
1.3 -0.1 1.1
1.4 -0.1 1.1
1.5 -0.1 1.1
1.6 -0.1 1.1
1.7 -0.1 1.1
1.8 -0.1 1.1
1.9 -0.1 1.1
-0.1 0 1.1
0 0 1.1
0.1 0 1.1
0.2 0 1.1
0.3 0 1.1
0.4 0 1.1
0.5 0 1.1
0.6 0 1.1
0.7 0 1.1
0.8 0 1.1
0.9 0 1.1
1 0 1.1
1.1 0 1.1
1.2 0 1.1
1.3 0 1.1
1.4 0 1.1
1.5 0 1.1
[...]
CELL_DATA 4000
VECTORS velocity double 
-3.38659e-05 -0.000210045 0.000925712
-6.64319e-05 -0.000253207 -0.000298232
-8.01877e-05 -0.000266964 -0.000637571
-8.03885e-05 -0.00027231 -0.000665577
-7.4254e-05 -0.000274236 -0.000644769
-6.61151e-05 -0.000274969 -0.000626898
-5.78836e-05 -0.000275321 -0.000616468
-5.00957e-05 -0.000275552 -0.000612636
-4.25873e-05 -0.000275716 -0.000614804
-3.48677e-05 -0.000275786 -0.000622713
-2.63155e-05 -0.000275699 -0.00063623
-1.62771e-05 -0.000275358 -0.000655213
-4.17484e-06 -0.000274642 -0.000679431
1.03609e-05 -0.000273376 -0.000708577
2.72687e-05 -0.000271348 -0.000742374
4.56156e-05 -0.000268227 -0.000780309
6.26125e-05 -0.000263518 -0.000815443
7.12602e-05 -0.000256325 -0.000790025
5.60026e-05 -0.000245283 -0.000428024
2.80013e-05 -0.000212627 0.000857303
-5.58021e-05 -0.000537577 -0.000633347
-0.000103993 -0.000653543 -0.00353732
-0.000124561 -0.000685329 -0.00431207
-0.000126653 -0.0006982 -0.004403
-0.000119866 -0.00070368 -0.00438197
-0.000109601 -0.000706285 -0.00435879
-9.82838e-05 -0.000707777 -0.00434444
-8.67225e-05 -0.000708788 -0.00433838
-7.49005e-05 -0.000709481 -0.00433996
-6.23828e-05 -0.000709822 -0.00434887
-4.85244e-05 -0.000709661 -0.00436496
-3.25834e-05 -0.000708769 -0.00438802
-1.38163e-05 -0.000706851 -0.00441774
8.34604e-06 -0.000703515 -0.00445365
3.41218e-05 -0.000698239 -0.00449537
6.28867e-05 -0.000690362 -0.0045419
9.22004e-05 -0.000678897 -0.00457971
0.00011395 -0.000662335 -0.00449232
0.000104262 -0.000636067 -0.00369062
5.21312e-05 -0.000540459 -0.000707408
-7.8166e-05 -0.000912113 -0.00167761
-0.000139115 -0.00112382 -0.00539189
-0.000163168 -0.0011762 -0.00635377
-0.00016418 -0.00119727 -0.00647188
-0.000154513 -0.00120692 -0.00645275
-0.000140787 -0.00121193 -0.00642897
-0.000125903 -0.00121498 -0.00641409
-0.000110807 -0.00121708 -0.00640786
-9.54828e-05 -0.00121853 -0.00640964
-7.94175e-05 -0.00121928 -0.00641914
-6.18481e-05 -0.00121909 -0.00643614
-4.18947e-05 -0.0012176 -0.0064604
-1.86289e-05 -0.00121432 -0.00649148
8.76518e-06 -0.0012086 -0.00652874
4.07555e-05 -0.00119964 -0.00657154
7.70806e-05 -0.00118646 -0.0066185
0.000115518 -0.00116779 -0.0066536
0.000147353 -0.00114149 -0.006538
0.000142965 -0.00109737 -0.00554817
7.14823e-05 -0.000914043 -0.00175208
-9.99274e-05 -0.00130624 -0.00272295
-0.000174163 -0.00163518 -0.00710032
-0.00020221 -0.0017117 -0.00820551
-0.000202237 -0.00174154 -0.00834529
-0.000189474 -0.00175567 -0.00832833
-0.000171946 -0.00176333 -0.00830444
-0.00015315 -0.00176813 -0.00828941
-0.000134221 -0.00177149 -0.00828326
-0.000115161 -0.00177385 -0.0082854
-9.53732e-05 -0.00177513 -0.00829557
-7.39445e-05 -0.00177502 -0.0083135
-4.97895e-05 -0.00177301 -0.00833887
-2.17723e-05 -0.00176836 -0.00837111
1.11932e-05 -0.00176019 -0.00840935
4.98267e-05 -0.00174743 -0.00845261
9.40381e-05 -0.00172878 -0.008499
0.000141538 -0.00170274 -0.00853038
0.000182429 -0.00166631 -0.00839137
0.000181367 -0.00160068 -0.00725764
9.06836e-05 -0.00130716 -0.00279923
-0.00012254 -0.00170394 -0.00402488
-0.00021126 -0.00216869 -0.00918882
-0.000243955 -0.0022734 -0.0104627
-0.000243163 -0.00231267 -0.0106282
-0.000227211 -0.00233147 -0.0106139
-0.000205677 -0.00234191 -0.0105899
-0.000182727 -0.00234858 -0.0105747
-0.00015972 -0.00235332 -0.0105687
-0.000136658 -0.0023567 -0.0105712
-0.000112844 -0.00235866 -0.0105821
-8.71927e-05 -0.0023588 -0.0106011
-5.83792e-05 -0.00235643 -0.0106277
-2.50025e-05 -0.00235059 -0.0106612
1.42617e-05 -0.0023401 -0.0107006
6.04249e-05 -0.00232355 -0.0107444
0.000113464 -0.00229937 -0.0107902
0.000170851 -0.00226573 -0.0108173
0.0002211 -0.00221842 -0.0106508
0.000222508 -0.00212694 -0.009348
0.000111254 -0.00170423 -0.00410376
-0.000147178 -0.00208654 -0.00567173
-0.000252049 -0.00270062 -0.0118111
-0.000290032 -0.00283746 -0.013293
-0.000288403 -0.00288675 -0.0134901
-0.000268971 -0.00291027 -0.013479
-0.000243057 -0.00292348 -0.013455
-0.000215576 -0.00293205 -0.0134396
-0.000188142 -0.00293824 -0.0134337
-0.000160751 -0.00294277 -0.0134367
-0.00013259 -0.00294561 -0.0134484
-0.000102356 -0.00294623 -0.0134684
-6.84326e-05 -0.00294379 -0.0134964
-2.91049e-05 -0.00293708 -0.0135313
1.72851e-05 -0.00292457 -0.0135718
7.19705e-05 -0.00290446 -0.0136163
0.00013507 -0.0028748 -0.0136616
0.000203618 -0.00283339 -0.0136841
0.000264249 -0.00277423 -0.0134846
0.00026793 -0.0026525 -0.0119734
0.000133965 -0.00208675 -0.00575347
-0.000174348 -0.00242597 -0.00772955
-0.000297225 -0.0031956 -0.0150639
-0.000341101 -0.00336771 -0.0167991
-0.000338499 -0.00342734 -0.0170345
-0.000315154 -0.00345538 -0.0170274
-0.00028438 -0.00347119 -0.0170036
-0.000251921 -0.00348157 -0.0169882
-0.000219682 -0.00348921 -0.0169825
-0.000187648 -0.003495 -0.0169861
-0.000154844 -0.00349891 -0.0169986
-0.000119733 -0.00350034 -0.0170198
-8.0359e-05 -0.00349825 -0.0170491
-3.45918e-05 -0.00349119 -0.0170854
1.96384e-05 -0.00347724 -0.0171271
8.39072e-05 -0.00345413 -0.0171722
0.00015841 -0.00341937 -0.0172169
0.00023976 -0.00337017 -0.0172341
0.000312169 -0.0032983 -0.016995
0.000318271 -0.00314235 -0.01523
0.000159135 -0.00242677 -0.00781411
-0.000204055 -0.00267999 -0.0102712
-0.000346696 -0.00360091 -0.0190514
-0.000396923 -0.00380993 -0.0210918
-0.000393073 -0.00387961 -0.0213734
-0.000365309 -0.00391156 -0.0213714
-0.000329161 -0.00392948 -0.0213481
-0.000291287 -0.00394135 -0.021333
-0.000253905 -0.0039503 -0.0213278
-0.00021701 -0.00395734 -0.0213321
-0.000179433 -0.0039625 -0.0213456
-0.00013934 -0.00396512 -0.0213679
-9.43997e-05 -0.00396401 -0.0213985
-4.19665e-05 -0.00395743 -0.0214361
2.05801e-05 -0.00394304 -0.0214788
9.52945e-05 -0.00391799 -0.0215242
0.00018259 -0.00387911 -0.0215678
0.00027849 -0.00382268 -0.0215785
0.000364435 -0.00373763 -0.021292
0.000373383 -0.00354451 -0.0192216
0.000186691 -0.00268203 -0.0103582
-0.000235735 -0.00278809 -0.0133703
-0.000399376 -0.00384135 -0.023881
-0.000456056 -0.00408628 -0.0262853
-0.000450503 -0.00416461 -0.026622
-0.000417747 -0.00419913 -0.0266265
-0.000375748 -0.00421817 -0.0266042
-0.000332143 -0.00423088 -0.0265898
-0.000289452 -0.00424073 -0.0265852
-0.000247687 -0.00424888 -0.0265904
-0.000205505 -0.00425538 -0.026605
-0.000160728 -0.00425958 -0.0266285
-0.000110558 -0.00426022 -0.0266604
-5.1746e-05 -0.00425534 -0.0266991
1.90614e-05 -0.00424215 -0.0267425
0.000104618 -0.00421712 -0.0267877
0.000205762 -0.0041761 -0.0268296
0.000317963 -0.00411412 -0.0268323
0.000419385 -0.00401642 -0.0264893
0.000431977 -0.00378499 -0.0240547
0.000215989 -0.00279192 -0.0134592
-0.000267911 -0.00266882 -0.0170885
-0.000452611 -0.00381508 -0.029645
-0.000515143 -0.00409087 -0.0324784
-0.000507166 -0.00417467 -0.0328802
-0.000468887 -0.00420932 -0.0328925
-0.000420756 -0.00422781 -0.0328717
-0.000371388 -0.0042402 -0.0328581
-0.000323579 -0.00425019 -0.0328545
-0.000277339 -0.00425901 -0.0328607
-0.000231192 -0.00426675 -0.0328764
-0.000182633 -0.00427288 -0.0329011
-0.000128345 -0.00427619 -0.0329341
-6.43355e-05 -0.00427462 -0.0329738
1.3676e-05 -0.00426506 -0.0330177
0.000109512 -0.0042432 -0.0330624
0.00022473 -0.00420371 -0.033102
0.000354542 -0.0041397 -0.033095
0.000473398 -0.00403185 -0.0326853
0.000490936 -0.00376394 -0.0298212
0.000245468 -0.00267475 -0.0171783
-0.000297742 -0.0022203 -0.0214565
-0.000501348 -0.00339307 -0.0363975
-0.000568009 -0.00368855 -0.03973
-0.000556563 -0.00377188 -0.0402067
-0.000512403 -0.00380267 -0.0402277
-0.000458277 -0.00381798 -0.0402083
-0.000403638 -0.00382831 -0.0401957
-0.000351497 -0.0038372 -0.0401931
-0.000301857 -0.00384581 -0.0402003
-0.000253138 -0.00385438 -0.040217
-0.000202592 -0.00386258 -0.0402429
-0.000146393 -0.00386948 -0.040277
-7.97574e-05 -0.00387319 -0.0403177
2.81408e-06 -0.00387052 -0.0403622
0.000106566 -0.00385657 -0.0404065
0.000234483 -0.00382459 -0.0404438
0.000381965 -0.00376511 -0.0404261
0.000519847 -0.00365288 -0.0399394
0.000544307 -0.00335505 -0.0365754
0.000272154 -0.00222804 -0.0215463
-0.000320362 -0.00132746 -0.0264553
-0.000536996 -0.00242561 -0.0441273
-0.000604248 -0.00272077 -0.0480301
-0.000587941 -0.0027938 -0.0485906
-0.000538023 -0.00281473 -0.0486199
-0.000478888 -0.00282315 -0.048601
-0.000420411 -0.00282894 -0.0485888
-0.000365683 -0.00283492 -0.0485867
-0.00031471 -0.00284198 -0.0485946
-0.000265889 -0.00285047 -0.0486121
-0.000216363 -0.00286048 -0.048639
-0.000161965 -0.00287163 -0.0486743
-9.71325e-05 -0.00288271 -0.0487163
-1.50659e-05 -0.00289093 -0.0487621
9.14568e-05 -0.00289127 -0.0488073
0.000227687 -0.00287576 -0.0488441
0.000390469 -0.0028317 -0.0488164
0.000547693 -0.00272626 -0.0482437
0.000582006 -0.00241239 -0.0443074
0.000291003 -0.0013357 -0.0265437
-0.00032791 0.000120187 -0.0319928
-0.000545687 -0.000760965 -0.0527273
-0.000607469 -0.00102368 -0.0572684
-0.000584751 -0.00107145 -0.0579185
-0.000530203 -0.00107434 -0.0579534
-0.000468521 -0.00107115 -0.0579327
-0.000409217 -0.00106933 -0.0579192
-0.000355159 -0.00107007 -0.0579165
-0.000306351 -0.00107368 -0.0579243
-0.000261325 -0.00108062 -0.0579421
-0.000217348 -0.00109154 -0.0579697
-0.000170252 -0.00110706 -0.0580064
-0.000114004 -0.00112714 -0.0580508
-4.06068e-05 -0.00115037 -0.0580998
5.94418e-05 -0.00117263 -0.058149
0.000194821 -0.00118563 -0.0581895
0.000365797 -0.00117341 -0.0581564
0.000539792 -0.0010939 -0.0574921
0.000587924 -0.000789038 -0.0529131
0.000293962 0.00011423 -0.0320787
-0.000308228 0.00219329 -0.0379024
-0.000506149 0.00171764 -0.0619866
-0.000553088 0.00153599 -0.0672235
-0.000522811 0.00153458 -0.0679638
-0.000466746 0.00155986 -0.0679986
-0.000407408 0.00157986 -0.0679716
-0.000352718 0.00159259 -0.0679538
-0.000304843 0.00159964 -0.0679485
-0.000263736 0.00160175 -0.0679545
-0.000228222 0.0015984 -0.0679715
-0.000196098 0.00158821 -0.0679993
-0.000163685 0.00156928 -0.0680378
-0.000125243 0.00153972 -0.0680859
-7.22129e-05 0.00149849 -0.0681415
6.94418e-06 0.00144692 -0.0682005
0.000125256 0.00139149 -0.0682533
0.000289326 0.0013496 -0.0682246
0.000471273 0.00137294 -0.0674694
0.000537726 0.00162634 -0.0621864
0.000268863 0.00219453 -0.0379853
-0.00024195 0.00486454 -0.0439474
-0.000385638 0.00502892 -0.071587
-0.000404766 0.00499773 -0.0775609
-0.000367627 0.00506959 -0.0783865
-0.000316929 0.00513368 -0.0784122
-0.000268868 0.00517506 -0.0783728
-0.000228014 0.00520136 -0.0783464
-0.000195182 0.00521846 -0.0783352
-0.000170152 0.00522846 -0.0783373
-0.000152219 0.00523093 -0.0783518
-0.000140117 0.00522377 -0.0783791
-0.000131466 0.00520363 -0.0784196
-0.000121914 0.00516623 -0.0784735
-0.000103957 0.00510685 -0.0785402
-6.54322e-05 0.00502178 -0.0786172
1.05803e-05 0.00491165 -0.0786948
0.00013991 0.00479025 -0.0786865
0.000308268 0.00471443 -0.077849
0.000395135 0.00484796 -0.0718154
0.000197568 0.00488021 -0.0440275
-9.63721e-05 0.00791479 -0.0496288
-0.00013295 0.00899362 -0.0807218
-0.000109166 0.00920532 -0.0874187
-7.08279e-05 0.0093793 -0.0883178
-3.90689e-05 0.00948979 -0.0883241
-1.77307e-05 0.00955435 -0.0882651
-5.74689e-06 0.009595 -0.0882255
-1.83236e-06 0.00962301 -0.0882051
-5.34763e-06 0.0096421 -0.0882006
-1.61786e-05 0.00965205 -0.0882108
-3.43634e-05 0.00965025 -0.0882364
-5.96258e-05 0.00963215 -0.0882788
-9.0571e-05 0.00959118 -0.0883403
-0.000123156 0.00951838 -0.0884228
-0.000148226 0.00940297 -0.088527
-0.000148504 0.0092348 -0.0886448
-9.94142e-05 0.00901424 -0.0886771
9.50794e-06 0.00878852 -0.087775
0.000105649 0.00869838 -0.080999
5.28245e-05 0.00795298 -0.0497079
0.000184742 0.010782 -0.0523538
0.000330121 0.01305 -0.084672
0.00040824 0.0136057 -0.0916293
0.000431152 0.0139008 -0.0925384
0.000419242 0.0140561 -0.0925148
0.000388497 0.01414 -0.0924319
0.00034804 0.0141923 -0.0923765
0.000302042 0.0142293 -0.092345
0.000251827 0.0142563 -0.0923323
0.000197014 0.0142735 -0.0923368
0.000136027 0.0142781 -0.0923595
6.64607e-05 0.0142653 -0.0924032
-1.46532e-05 0.0142269 -0.0924724
-0.000109687 0.0141509 -0.0925727
-0.000217977 0.0140194 -0.0927094
-0.000330965 0.0138084 -0.0928782
-0.000425284 0.0134933 -0.092971
-0.000462663 0.0130828 -0.0920745
-0.000410759 0.0126392 -0.0850138
-0.000205379 0.0108449 -0.0524342
0.000666761 0.0123403 -0.0380448
0.00107753 0.015899 -0.0581883
0.00120508 0.0168398 -0.0623794
0.00117855 0.0172384 -0.0628532
0.00108444 0.0174198 -0.0627595
0.000965479 0.0175112 -0.0626538
0.000840578 0.017567 -0.0625856
0.000717401 0.0176069 -0.0625454
0.000598174 0.0176369 -0.0625261
0.000482066 0.0176574 -0.0625256
0.000366015 0.0176665 -0.0625452
0.00024473 0.0176598 -0.0625887
0.000110448 0.0176298 -0.0626626
-4.74704e-05 0.017564 -0.0627757
-0.000242242 0.0174414 -0.0629388
-0.000487116 0.0172279 -0.0631546
-0.000785461 0.0168715 -0.0633459
-0.00109748 0.016314 -0.0628984
-0.00122732 0.0154446 -0.0585829
-0.000613658 0.0124077 -0.0381387
0.00128993 0.0108502 0.049905
0.00197788 0.0149862 0.0875909
0.00210636 0.0160831 0.0958925
0.00197875 0.0164863 0.097428
0.00176154 0.0166508 0.0977741
0.00152439 0.0167282 0.0979079
0.00129457 0.0167735 0.0979794
0.00108193 0.0168051 0.0980198
0.000888524 0.0168286 0.0980391
0.000712177 0.016845 0.0980402
0.000547814 0.016853 0.098022
0.000387557 0.0168501 0.0979806
0.000219742 0.0168309 0.097909
2.70144e-05 0.016786 0.0977968
-0.000217458 0.0166988 0.0976299
-0.000555739 0.0165381 0.0973844
-0.00104699 0.0162465 0.0969442
-0.00171297 0.0157213 0.0954014
-0.00220408 0.0146677 0.0872261
-0.00110204 0.0108729 0.0497387
0.00131773 0.00542511 0.392374
0.00195509 0.00749312 0.536554
0.00197003 0.00804157 0.56064
0.00174673 0.00824313 0.564449
0.00147426 0.00832541 0.565085
0.00121627 0.00836408 0.565233
0.00098969 0.00838674 0.565289
0.00079606 0.00840256 0.565315
0.000631658 0.00841432 0.565326
0.000490706 0.00842248 0.565324
0.000366323 0.00842651 0.565308
0.000250289 0.00842504 0.565277
0.000131967 0.00841543 0.565223
-4.1872e-06 0.00839302 0.565137
-0.000184127 0.00834939 0.565004
-0.000456048 0.00826904 0.564768
-0.000905101 0.00812326 0.564069
-0.00159746 0.00786063 0.56029
-0.00214374 0.00733385 0.536305
-0.00107187 0.00543643 0.39206
-1.43593e-05 -0.000216947 0.00128962
-2.97152e-05 -0.000257861 0.000120419
-3.65922e-05 -0.000269058 -0.000220329
-3.66715e-05 -0.000273468 -0.000245943
-3.39808e-05 -0.0002751 -0.000221694
-3.10701e-05 -0.000275717 -0.00020109
-2.89585e-05 -0.000276021 -0.00018882
-2.77509e-05 -0.000276245 -0.000183906
-2.71011e-05 -0.000276443 -0.000185657
-2.64518e-05 -0.000276601 -0.000193813
-2.51377e-05 -0.000276653 -0.000208333
-2.24615e-05 -0.000276506 -0.000229212
-1.77379e-05 -0.000276045 -0.000256298
-1.04199e-05 -0.000275081 -0.000289296
-4.11803e-07 -0.000273407 -0.00032775
1.14223e-05 -0.000270709 -0.000370565
2.24536e-05 -0.000266589 -0.000409429
2.696e-05 -0.000260528 -0.000383717
1.70636e-05 -0.000251405 -1.5367e-05
8.5318e-06 -0.000218284 0.00121918
-2.86443e-05 -0.00057922 -0.000193564
-5.47131e-05 -0.000702877 -0.00303937
-6.63263e-05 -0.000732174 -0.0038223
-6.76987e-05 -0.000743394 -0.00391158
-6.46168e-05 -0.000748037 -0.00388622
-6.04442e-05 -0.000750158 -0.00385946
-5.6548e-05 -0.000751362 -0.00384269
-5.31969e-05 -0.000752244 -0.00383521
-5.01211e-05 -0.000752959 -0.00383623
-4.67573e-05 -0.000753458 -0.00384547
-4.23787e-05 -0.000753608 -0.00386286
-3.61751e-05 -0.000753198 -0.00388836
-2.72505e-05 -0.000751907 -0.00392177
-1.48403e-05 -0.000749331 -0.00396268
1.44599e-06 -0.000744921 -0.00401046
2.09817e-05 -0.000738009 -0.00406341
4.11345e-05 -0.000727694 -0.00410602
5.4863e-05 -0.000712767 -0.00401678
4.83727e-05 -0.00068789 -0.00320024
2.41864e-05 -0.000581376 -0.000270464
-4.8598e-05 -0.00102493 -0.00120321
-8.60682e-05 -0.00126894 -0.00486725
-0.000100931 -0.00132192 -0.00584099
-0.000101479 -0.00134121 -0.00595757
-9.594e-05 -0.00134955 -0.00593355
-8.87763e-05 -0.00135366 -0.00590572
-8.18047e-05 -0.00135616 -0.00588811
-7.54212e-05 -0.00135797 -0.00588024
-6.93428e-05 -0.00135938 -0.00588135
-6.29601e-05 -0.00136036 -0.00589117
-5.545e-05 -0.00136068 -0.0059096
-4.5825e-05 -0.00135995 -0.00593657
-3.30111e-05 -0.00135769 -0.00597179
-1.59628e-05 -0.00135321 -0.00601468
5.97639e-06 -0.00134562 -0.00606439
3.25392e-05 -0.00133388 -0.00611872
6.12175e-05 -0.00131669 -0.00615933
8.43223e-05 -0.00129178 -0.00604131
8.30474e-05 -0.00124565 -0.00503194
4.15237e-05 -0.00102719 -0.00128077
-6.97083e-05 -0.0015291 -0.00220182
-0.000119814 -0.00193114 -0.00653374
-0.00013842 -0.0020143 -0.00765316
-0.000138039 -0.00204281 -0.00779116
-0.000129626 -0.0020553 -0.00776861
-0.000118976 -0.00206174 -0.0077401
-0.000108414 -0.00206574 -0.00772191
-9.8537e-05 -0.00206868 -0.00771385
-8.90982e-05 -0.00207097 -0.00771518
-7.93815e-05 -0.00207255 -0.00772564
-6.84219e-05 -0.0020731 -0.00774511
-5.50416e-05 -0.0020721 -0.00777348
-3.79119e-05 -0.00206884 -0.00781036
-1.56893e-05 -0.00206234 -0.00785497
1.25986e-05 -0.00205141 -0.00790611
4.68943e-05 -0.00203459 -0.00796096
8.47038e-05 -0.00201017 -0.00799876
0.000117245 -0.00197431 -0.00785717
0.000120167 -0.00190041 -0.00670053
6.00835e-05 -0.00153141 -0.00228154
-9.18337e-05 -0.00208195 -0.00345397
-0.00015581 -0.00267932 -0.00857913
-0.000178697 -0.0028001 -0.00987019
-0.000177413 -0.00283911 -0.0100338
-0.000165934 -0.00285617 -0.0100131
-0.000151503 -0.00286519 -0.00998378
-0.00013711 -0.00287091 -0.00996495
-0.00012351 -0.00287513 -0.00995665
-0.000110459 -0.00287844 -0.0099582
-9.71515e-05 -0.00288075 -0.00996933
-8.24473e-05 -0.00288167 -0.00998993
-6.49256e-05 -0.00288052 -0.0100198
-4.29616e-05 -0.00287635 -0.0100586
-1.48969e-05 -0.00286786 -0.0101052
2.05798e-05 -0.00285349 -0.010158
6.35894e-05 -0.00283141 -0.0102135
0.000111441 -0.00279937 -0.0102481
0.000153857 -0.00275128 -0.0100787
0.000160137 -0.002642 -0.00874889
8.00687e-05 -0.0020845 -0.00353667
-0.00011579 -0.00267452 -0.0050576
-0.000195198 -0.00350275 -0.0111701
-0.000222938 -0.00366915 -0.0126736
-0.000220679 -0.00372004 -0.0128687
-0.000205805 -0.00374199 -0.0128504
-0.000187234 -0.00375375 -0.0128204
-0.000168623 -0.00376134 -0.0128009
-0.000150978 -0.00376702 -0.0127924
-0.000134023 -0.00377149 -0.0127942
-0.000116839 -0.00377472 -0.012806
-9.8074e-05 -0.00377621 -0.0128278
-7.60167e-05 -0.00377512 -0.0128594
-4.86885e-05 -0.00377023 -0.0129001
-1.40277e-05 -0.0037599 -0.0129488
2.95881e-05 -0.00374214 -0.0130035
8.24971e-05 -0.00371464 -0.0130599
0.00014163 -0.00367457 -0.0130908
0.000194833 -0.00361263 -0.0128878
0.000204121 -0.00345955 -0.0113439
0.00010206 -0.00267759 -0.00514358
-0.000142272 -0.00329031 -0.00708978
-0.000238982 -0.0043814 -0.014417
-0.000272177 -0.00460147 -0.0161803
-0.000268798 -0.0046655 -0.0164141
-0.000250064 -0.0046925 -0.0163992
-0.000226839 -0.00470707 -0.0163687
-0.000203547 -0.0047166 -0.0163487
-0.000181435 -0.00472383 -0.0163401
-0.000160226 -0.00472963 -0.0163422
-0.000138845 -0.00473398 -0.0163548
-0.000115696 -0.00473631 -0.0163778
-8.87209e-05 -0.0047356 -0.016411
-5.55024e-05 -0.00473035 -0.0164537
-1.35167e-05 -0.00471855 -0.0165045
3.93238e-05 -0.00469767 -0.0165609
0.000103508 -0.00466484 -0.016618
0.000175541 -0.00461633 -0.0166445
0.000240874 -0.00453877 -0.0164007
0.000253181 -0.00433315 -0.0145954
0.000126591 -0.00329428 -0.00717898
-0.000171696 -0.00389857 -0.00963815
-0.000287689 -0.00527821 -0.0184426
-0.000326895 -0.0055594 -0.02052
-0.000322116 -0.00563748 -0.0208012
-0.000298986 -0.00566935 -0.0207909
-0.000270493 -0.00568652 -0.0207603
-0.000241975 -0.00569789 -0.0207402
-0.00021494 -0.00570666 -0.0207317
-0.000189115 -0.00571388 -0.0207344
-0.00016326 -0.00571954 -0.0207478
-0.000135494 -0.00572303 -0.020772
-0.000103341 -0.00572318 -0.0208068
-6.38651e-05 -0.00571821 -0.0208513
-1.39052e-05 -0.00570566 -0.0209038
4.9175e-05 -0.00568239 -0.0209617
0.000126173 -0.00564475 -0.0210188
0.000212977 -0.00558786 -0.0210394
0.000292209 -0.005493 -0.0207462
0.000307911 -0.00522625 -0.0186248
0.000153956 -0.00390381 -0.0097302
-0.000204016 -0.00444742 -0.0127964
-0.000341075 -0.00613081 -0.023378
-0.000386572 -0.00647882 -0.025832
-0.000379951 -0.00657096 -0.0261706
-0.000351734 -0.00660688 -0.0261668