# vtk DataFile Version 2.0 
Visualization 
ASCII 
DATASET STRUCTURED_GRID 
DIMENSIONS 21 21 11
POINTS 4851 float
-0.1 -0.1 0.9
0 -0.1 0.9
0.1 -0.1 0.9
0.2 -0.1 0.9
0.3 -0.1 0.9
0.4 -0.1 0.9
0.5 -0.1 0.9
0.6 -0.1 0.9
0.7 -0.1 0.9
0.8 -0.1 0.9
0.9 -0.1 0.9
1 -0.1 0.9
1.1 -0.1 0.9
1.2 -0.1 0.9
1.3 -0.1 0.9
1.4 -0.1 0.9
1.5 -0.1 0.9
1.6 -0.1 0.9
1.7 -0.1 0.9
1.8 -0.1 0.9
1.9 -0.1 0.9
-0.1 0 0.9
0 0 0.9
0.1 0 0.9
0.2 0 0.9
0.3 0 0.9
0.4 0 0.9
0.5 0 0.9
0.6 0 0.9
0.7 0 0.9
0.8 0 0.9
0.9 0 0.9
1 0 0.9
1.1 0 0.9
1.2 0 0.9
1.3 0 0.9
1.4 0 0.9
1.5 0 0.9
1.6 0 0.9
1.7 0 0.9
1.8 0 0.9
1.9 0 0.9
-0.1 0.1 0.9
0 0.1 0.9
0.1 0.1 0.9
0.2 0.1 0.9
0.3 0.1 0.9
0.4 0.1 0.9
0.5 0.1 0.9
0.6 0.1 0.9
0.7 0.1 0.9
0.8 0.1 0.9
0.9 0.1 0.9
1 0.1 0.9
1.1 0.1 0.9
1.2 0.1 0.9
1.3 0.1 0.9
1.4 0.1 0.9
1.5 0.1 0.9
1.6 0.1 0.9
1.7 0.1 0.9
1.8 0.1 0.9
1.9 0.1 0.9
-0.1 0.2 0.9
0 0.2 0.9
0.1 0.2 0.9
0.2 0.2 0.9
0.3 0.2 0.9
0.4 0.2 0.9
0.5 0.2 0.9
0.6 0.2 0.9
0.7 0.2 0.9
0.8 0.2 0.9
0.9 0.2 0.9
1 0.2 0.9
1.1 0.2 0.9
1.2 0.2 0.9
1.3 0.2 0.9
1.4 0.2 0.9
1.5 0.2 0.9
1.6 0.2 0.9
1.7 0.2 0.9
1.8 0.2 0.9
1.9 0.2 0.9
-0.1 0.3 0.9
0 0.3 0.9
0.1 0.3 0.9
0.2 0.3 0.9
0.3 0.3 0.9
0.4 0.3 0.9
0.5 0.3 0.9
0.6 0.3 0.9
0.7 0.3 0.9
0.8 0.3 0.9
0.9 0.3 0.9
1 0.3 0.9
1.1 0.3 0.9
1.2 0.3 0.9
1.3 0.3 0.9
1.4 0.3 0.9
1.5 0.3 0.9
1.6 0.3 0.9
1.7 0.3 0.9
1.8 0.3 0.9
1.9 0.3 0.9
-0.1 0.4 0.9
0 0.4 0.9
0.1 0.4 0.9
0.2 0.4 0.9
0.3 0.4 0.9
0.4 0.4 0.9
0.5 0.4 0.9
0.6 0.4 0.9
0.7 0.4 0.9
0.8 0.4 0.9
0.9 0.4 0.9
1 0.4 0.9
1.1 0.4 0.9
1.2 0.4 0.9
1.3 0.4 0.9
1.4 0.4 0.9
1.5 0.4 0.9
1.6 0.4 0.9
1.7 0.4 0.9
1.8 0.4 0.9
1.9 0.4 0.9
-0.1 0.5 0.9
0 0.5 0.9
0.1 0.5 0.9
0.2 0.5 0.9
0.3 0.5 0.9
0.4 0.5 0.9
0.5 0.5 0.9
0.6 0.5 0.9
0.7 0.5 0.9
0.8 0.5 0.9
0.9 0.5 0.9
1 0.5 0.9
1.1 0.5 0.9
1.2 0.5 0.9
1.3 0.5 0.9
1.4 0.5 0.9
1.5 0.5 0.9
1.6 0.5 0.9
1.7 0.5 0.9
1.8 0.5 0.9
1.9 0.5 0.9
-0.1 0.6 0.9
0 0.6 0.9
0.1 0.6 0.9
0.2 0.6 0.9
0.3 0.6 0.9
0.4 0.6 0.9
0.5 0.6 0.9
0.6 0.6 0.9
0.7 0.6 0.9
0.8 0.6 0.9
0.9 0.6 0.9
1 0.6 0.9
1.1 0.6 0.9
1.2 0.6 0.9
1.3 0.6 0.9
1.4 0.6 0.9
1.5 0.6 0.9
1.6 0.6 0.9
1.7 0.6 0.9
1.8 0.6 0.9
1.9 0.6 0.9
-0.1 0.7 0.9
0 0.7 0.9
0.1 0.7 0.9
0.2 0.7 0.9
0.3 0.7 0.9
0.4 0.7 0.9
0.5 0.7 0.9
0.6 0.7 0.9
0.7 0.7 0.9
0.8 0.7 0.9
0.9 0.7 0.9
1 0.7 0.9
1.1 0.7 0.9
1.2 0.7 0.9
1.3 0.7 0.9
1.4 0.7 0.9
1.5 0.7 0.9
1.6 0.7 0.9
1.7 0.7 0.9
1.8 0.7 0.9
1.9 0.7 0.9
-0.1 0.8 0.9
0 0.8 0.9
0.1 0.8 0.9
0.2 0.8 0.9
0.3 0.8 0.9
0.4 0.8 0.9
0.5 0.8 0.9
0.6 0.8 0.9
0.7 0.8 0.9
0.8 0.8 0.9
0.9 0.8 0.9
1 0.8 0.9
1.1 0.8 0.9
1.2 0.8 0.9
1.3 0.8 0.9
1.4 0.8 0.9
1.5 0.8 0.9
1.6 0.8 0.9
1.7 0.8 0.9
1.8 0.8 0.9
1.9 0.8 0.9
-0.1 0.9 0.9
0 0.9 0.9
0.1 0.9 0.9
0.2 0.9 0.9
0.3 0.9 0.9
0.4 0.9 0.9
0.5 0.9 0.9
0.6 0.9 0.9
0.7 0.9 0.9
0.8 0.9 0.9
0.9 0.9 0.9
1 0.9 0.9
1.1 0.9 0.9
1.2 0.9 0.9
1.3 0.9 0.9
1.4 0.9 0.9
1.5 0.9 0.9
1.6 0.9 0.9
1.7 0.9 0.9
1.8 0.9 0.9
1.9 0.9 0.9
-0.1 1 0.9
0 1 0.9
0.1 1 0.9
0.2 1 0.9
0.3 1 0.9
0.4 1 0.9
0.5 1 0.9
0.6 1 0.9
0.7 1 0.9
0.8 1 0.9
0.9 1 0.9
1 1 0.9
1.1 1 0.9
1.2 1 0.9
1.3 1 0.9
1.4 1 0.9
1.5 1 0.9
1.6 1 0.9
1.7 1 0.9
1.8 1 0.9
1.9 1 0.9
-0.1 1.1 0.9
0 1.1 0.9
0.1 1.1 0.9
0.2 1.1 0.9
0.3 1.1 0.9
0.4 1.1 0.9
0.5 1.1 0.9
0.6 1.1 0.9
0.7 1.1 0.9
0.8 1.1 0.9
0.9 1.1 0.9
1 1.1 0.9
1.1 1.1 0.9
1.2 1.1 0.9
1.3 1.1 0.9
1.4 1.1 0.9
1.5 1.1 0.9
1.6 1.1 0.9
1.7 1.1 0.9
1.8 1.1 0.9
1.9 1.1 0.9
-0.1 1.2 0.9
0 1.2 0.9
0.1 1.2 0.9
0.2 1.2 0.9
0.3 1.2 0.9
0.4 1.2 0.9
0.5 1.2 0.9
0.6 1.2 0.9
0.7 1.2 0.9
0.8 1.2 0.9
0.9 1.2 0.9
1 1.2 0.9
1.1 1.2 0.9
1.2 1.2 0.9
1.3 1.2 0.9
1.4 1.2 0.9
1.5 1.2 0.9
1.6 1.2 0.9
1.7 1.2 0.9
1.8 1.2 0.9
1.9 1.2 0.9
-0.1 1.3 0.9
0 1.3 0.9
0.1 1.3 0.9
0.2 1.3 0.9
0.3 1.3 0.9
0.4 1.3 0.9
0.5 1.3 0.9
0.6 1.3 0.9
0.7 1.3 0.9
0.8 1.3 0.9
0.9 1.3 0.9
1 1.3 0.9
1.1 1.3 0.9
1.2 1.3 0.9
1.3 1.3 0.9
1.4 1.3 0.9
1.5 1.3 0.9
1.6 1.3 0.9
1.7 1.3 0.9
1.8 1.3 0.9
1.9 1.3 0.9
-0.1 1.4 0.9
0 1.4 0.9
0.1 1.4 0.9
0.2 1.4 0.9
0.3 1.4 0.9
0.4 1.4 0.9
0.5 1.4 0.9
0.6 1.4 0.9
0.7 1.4 0.9
0.8 1.4 0.9
0.9 1.4 0.9
1 1.4 0.9
1.1 1.4 0.9
1.2 1.4 0.9
1.3 1.4 0.9
1.4 1.4 0.9
1.5 1.4 0.9
1.6 1.4 0.9
1.7 1.4 0.9
1.8 1.4 0.9
1.9 1.4 0.9
-0.1 1.5 0.9
0 1.5 0.9
0.1 1.5 0.9
0.2 1.5 0.9
0.3 1.5 0.9
0.4 1.5 0.9
0.5 1.5 0.9
0.6 1.5 0.9
0.7 1.5 0.9
0.8 1.5 0.9
0.9 1.5 0.9
1 1.5 0.9
1.1 1.5 0.9
1.2 1.5 0.9
1.3 1.5 0.9
1.4 1.5 0.9
1.5 1.5 0.9
1.6 1.5 0.9
1.7 1.5 0.9
1.8 1.5 0.9
1.9 1.5 0.9
-0.1 1.6 0.9
0 1.6 0.9
0.1 1.6 0.9
0.2 1.6 0.9
0.3 1.6 0.9
0.4 1.6 0.9
0.5 1.6 0.9
0.6 1.6 0.9
0.7 1.6 0.9
0.8 1.6 0.9
0.9 1.6 0.9
1 1.6 0.9
1.1 1.6 0.9
1.2 1.6 0.9
1.3 1.6 0.9
1.4 1.6 0.9
1.5 1.6 0.9
1.6 1.6 0.9
1.7 1.6 0.9
1.8 1.6 0.9
1.9 1.6 0.9
-0.1 1.7 0.9
0 1.7 0.9
0.1 1.7 0.9
0.2 1.7 0.9
0.3 1.7 0.9
0.4 1.7 0.9
0.5 1.7 0.9
0.6 1.7 0.9
0.7 1.7 0.9
0.8 1.7 0.9
0.9 1.7 0.9
1 1.7 0.9
1.1 1.7 0.9
1.2 1.7 0.9
1.3 1.7 0.9
1.4 1.7 0.9
1.5 1.7 0.9
1.6 1.7 0.9
1.7 1.7 0.9
1.8 1.7 0.9
1.9 1.7 0.9
-0.1 1.8 0.9
0 1.8 0.9
0.1 1.8 0.9
0.2 1.8 0.9
0.3 1.8 0.9
0.4 1.8 0.9
0.5 1.8 0.9
0.6 1.8 0.9
0.7 1.8 0.9
0.8 1.8 0.9
0.9 1.8 0.9
1 1.8 0.9
1.1 1.8 0.9
1.2 1.8 0.9
1.3 1.8 0.9
1.4 1.8 0.9
1.5 1.8 0.9
1.6 1.8 0.9
1.7 1.8 0.9
1.8 1.8 0.9
1.9 1.8 0.9
-0.1 1.9 0.9
0 1.9 0.9
0.1 1.9 0.9
0.2 1.9 0.9
0.3 1.9 0.9
0.4 1.9 0.9
0.5 1.9 0.9
0.6 1.9 0.9
0.7 1.9 0.9
0.8 1.9 0.9
0.9 1.9 0.9
1 1.9 0.9
1.1 1.9 0.9
1.2 1.9 0.9
1.3 1.9 0.9
1.4 1.9 0.9
1.5 1.9 0.9
1.6 1.9 0.9
1.7 1.9 0.9
1.8 1.9 0.9
1.9 1.9 0.9
-0.1 -0.1 1
0 -0.1 1
0.1 -0.1 1
0.2 -0.1 1
0.3 -0.1 1
0.4 -0.1 1
0.5 -0.1 1
0.6 -0.1 1
0.7 -0.1 1
0.8 -0.1 1
0.9 -0.1 1
1 -0.1 1
1.1 -0.1 1
1.2 -0.1 1
1.3 -0.1 1
1.4 -0.1 1
1.5 -0.1 1
1.6 -0.1 1
1.7 -0.1 1
1.8 -0.1 1
1.9 -0.1 1
-0.1 0 1
0 0 1
0.1 0 1
0.2 0 1
0.3 0 1
0.4 0 1
0.5 0 1
0.6 0 1
0.7 0 1
0.8 0 1
0.9 0 1
1 0 1
1.1 0 1
1.2 0 1
1.3 0 1
1.4 0 1
1.5 0 1
1.6 0 1
1.7 0 1
1.8 0 1
1.9 0 1
-0.1 0.1 1
0 0.1 1
0.1 0.1 1
0.2 0.1 1
0.3 0.1 1
0.4 0.1 1
0.5 0.1 1
0.6 0.1 1
0.7 0.1 1
0.8 0.1 1
0.9 0.1 1
1 0.1 1
1.1 0.1 1
1.2 0.1 1
1.3 0.1 1
1.4 0.1 1
1.5 0.1 1
1.6 0.1 1
1.7 0.1 1
1.8 0.1 1
1.9 0.1 1
-0.1 0.2 1
0 0.2 1
0.1 0.2 1
0.2 0.2 1
0.3 0.2 1
0.4 0.2 1
0.5 0.2 1
0.6 0.2 1
0.7 0.2 1
0.8 0.2 1
0.9 0.2 1
1 0.2 1
1.1 0.2 1
1.2 0.2 1
1.3 0.2 1
1.4 0.2 1
1.5 0.2 1
1.6 0.2 1
1.7 0.2 1
1.8 0.2 1
1.9 0.2 1
-0.1 0.3 1
0 0.3 1
0.1 0.3 1
0.2 0.3 1
0.3 0.3 1
0.4 0.3 1
0.5 0.3 1
0.6 0.3 1
0.7 0.3 1
0.8 0.3 1
0.9 0.3 1
1 0.3 1
1.1 0.3 1
1.2 0.3 1
1.3 0.3 1
1.4 0.3 1
1.5 0.3 1
1.6 0.3 1
1.7 0.3 1
1.8 0.3 1
1.9 0.3 1
-0.1 0.4 1
0 0.4 1
0.1 0.4 1
0.2 0.4 1
0.3 0.4 1
0.4 0.4 1
0.5 0.4 1
0.6 0.4 1
0.7 0.4 1
0.8 0.4 1
0.9 0.4 1
1 0.4 1
1.1 0.4 1
1.2 0.4 1
1.3 0.4 1
1.4 0.4 1
1.5 0.4 1
1.6 0.4 1
1.7 0.4 1
1.8 0.4 1
1.9 0.4 1
-0.1 0.5 1
0 0.5 1
0.1 0.5 1
0.2 0.5 1
0.3 0.5 1
0.4 0.5 1
0.5 0.5 1
0.6 0.5 1
0.7 0.5 1
0.8 0.5 1
0.9 0.5 1
1 0.5 1
1.1 0.5 1
1.2 0.5 1
1.3 0.5 1
1.4 0.5 1
1.5 0.5 1
1.6 0.5 1
1.7 0.5 1
1.8 0.5 1
1.9 0.5 1
-0.1 0.6 1
0 0.6 1
0.1 0.6 1
0.2 0.6 1
0.3 0.6 1
0.4 0.6 1
0.5 0.6 1
0.6 0.6 1
0.7 0.6 1
0.8 0.6 1
0.9 0.6 1
1 0.6 1
1.1 0.6 1
1.2 0.6 1
1.3 0.6 1
1.4 0.6 1
1.5 0.6 1
1.6 0.6 1
1.7 0.6 1
1.8 0.6 1
1.9 0.6 1
-0.1 0.7 1
0 0.7 1
0.1 0.7 1
0.2 0.7 1
0.3 0.7 1
0.4 0.7 1
0.5 0.7 1
0.6 0.7 1
0.7 0.7 1
0.8 0.7 1
0.9 0.7 1
1 0.7 1
1.1 0.7 1
1.2 0.7 1
1.3 0.7 1
1.4 0.7 1
1.5 0.7 1
1.6 0.7 1
1.7 0.7 1
1.8 0.7 1
1.9 0.7 1
-0.1 0.8 1
0 0.8 1
0.1 0.8 1
0.2 0.8 1
0.3 0.8 1
0.4 0.8 1
0.5 0.8 1
0.6 0.8 1
0.7 0.8 1
0.8 0.8 1
0.9 0.8 1
1 0.8 1
1.1 0.8 1
1.2 0.8 1
1.3 0.8 1
1.4 0.8 1
1.5 0.8 1
1.6 0.8 1
1.7 0.8 1
1.8 0.8 1
1.9 0.8 1
-0.1 0.9 1
0 0.9 1
0.1 0.9 1
0.2 0.9 1
0.3 0.9 1
0.4 0.9 1
0.5 0.9 1
0.6 0.9 1
0.7 0.9 1
0.8 0.9 1
0.9 0.9 1
1 0.9 1
1.1 0.9 1
1.2 0.9 1
1.3 0.9 1
1.4 0.9 1
1.5 0.9 1
1.6 0.9 1
1.7 0.9 1
1.8 0.9 1
1.9 0.9 1
-0.1 1 1
0 1 1
0.1 1 1
0.2 1 1
0.3 1 1
0.4 1 1
0.5 1 1
0.6 1 1
0.7 1 1
0.8 1 1
0.9 1 1
1 1 1
1.1 1 1
1.2 1 1
1.3 1 1
1.4 1 1
1.5 1 1
1.6 1 1
1.7 1 1
1.8 1 1
1.9 1 1
-0.1 1.1 1
0 1.1 1
0.1 1.1 1
0.2 1.1 1
0.3 1.1 1
0.4 1.1 1
0.5 1.1 1
0.6 1.1 1
0.7 1.1 1
0.8 1.1 1
0.9 1.1 1
1 1.1 1
1.1 1.1 1
1.2 1.1 1
1.3 1.1 1
1.4 1.1 1
1.5 1.1 1
1.6 1.1 1
1.7 1.1 1
1.8 1.1 1
1.9 1.1 1
-0.1 1.2 1
0 1.2 1
0.1 1.2 1
0.2 1.2 1
0.3 1.2 1
0.4 1.2 1
0.5 1.2 1
0.6 1.2 1
0.7 1.2 1
0.8 1.2 1
0.9 1.2 1
1 1.2 1
1.1 1.2 1
1.2 1.2 1
1.3 1.2 1
1.4 1.2 1
1.5 1.2 1
1.6 1.2 1
1.7 1.2 1
1.8 1.2 1
1.9 1.2 1
-0.1 1.3 1
0 1.3 1
0.1 1.3 1
0.2 1.3 1
0.3 1.3 1
0.4 1.3 1
0.5 1.3 1
0.6 1.3 1
0.7 1.3 1
0.8 1.3 1
0.9 1.3 1
1 1.3 1
1.1 1.3 1
1.2 1.3 1
1.3 1.3 1
1.4 1.3 1
1.5 1.3 1
1.6 1.3 1
1.7 1.3 1
1.8 1.3 1
1.9 1.3 1
-0.1 1.4 1
0 1.4 1
0.1 1.4 1
0.2 1.4 1
0.3 1.4 1
0.4 1.4 1
0.5 1.4 1
0.6 1.4 1
0.7 1.4 1
0.8 1.4 1
0.9 1.4 1
1 1.4 1
1.1 1.4 1
1.2 1.4 1
1.3 1.4 1
1.4 1.4 1
1.5 1.4 1
1.6 1.4 1
1.7 1.4 1
1.8 1.4 1
1.9 1.4 1
-0.1 1.5 1
0 1.5 1
0.1 1.5 1
0.2 1.5 1
0.3 1.5 1
0.4 1.5 1
0.5 1.5 1
0.6 1.5 1
0.7 1.5 1
0.8 1.5 1
0.9 1.5 1
1 1.5 1
1.1 1.5 1
1.2 1.5 1
1.3 1.5 1
1.4 1.5 1
1.5 1.5 1
1.6 1.5 1
1.7 1.5 1
1.8 1.5 1
1.9 1.5 1
-0.1 1.6 1
0 1.6 1
0.1 1.6 1
0.2 1.6 1
0.3 1.6 1
0.4 1.6 1
0.5 1.6 1
0.6 1.6 1
0.7 1.6 1
0.8 1.6 1
0.9 1.6 1
1 1.6 1
1.1 1.6 1
1.2 1.6 1
1.3 1.6 1
1.4 1.6 1
1.5 1.6 1
1.6 1.6 1
1.7 1.6 1
1.8 1.6 1
1.9 1.6 1
-0.1 1.7 1
0 1.7 1
0.1 1.7 1
0.2 1.7 1
0.3 1.7 1
0.4 1.7 1
0.5 1.7 1
0.6 1.7 1
0.7 1.7 1
0.8 1.7 1
0.9 1.7 1
1 1.7 1
1.1 1.7 1
1.2 1.7 1
1.3 1.7 1
1.4 1.7 1
1.5 1.7 1
1.6 1.7 1
1.7 1.7 1
1.8 1.7 1
1.9 1.7 1
-0.1 1.8 1
0 1.8 1
0.1 1.8 1
0.2 1.8 1
0.3 1.8 1
0.4 1.8 1
0.5 1.8 1
0.6 1.8 1
0.7 1.8 1
0.8 1.8 1
0.9 1.8 1
1 1.8 1
1.1 1.8 1
1.2 1.8 1
1.3 1.8 1
1.4 1.8 1
1.5 1.8 1
1.6 1.8 1
1.7 1.8 1
1.8 1.8 1
1.9 1.8 1
-0.1 1.9 1
0 1.9 1
0.1 1.9 1
0.2 1.9 1
0.3 1.9 1
0.4 1.9 1
0.5 1.9 1
0.6 1.9 1
0.7 1.9 1
0.8 1.9 1
0.9 1.9 1
1 1.9 1
1.1 1.9 1
1.2 1.9 1
1.3 1.9 1
1.4 1.9 1
1.5 1.9 1
1.6 1.9 1
1.7 1.9 1
1.8 1.9 1
1.9 1.9 1
-0.1 -0.1 1.1
0 -0.1 1.1
0.1 -0.1 1.1
0.2 -0.1 1.1
0.3 -0.1 1.1
0.4 -0.1 1.1
0.5 -0.1 1.1
0.6 -0.1 1.1
0.7 -0.1 1.1
0.8 -0.1 1.1
0.9 -0.1 1.1
1 -0.1 1.1
1.1 -0.1 1.1
1.2 -0.1 1.1
1.3 -0.1 1.1
1.4 -0.1 1.1
1.5 -0.1 1.1
1.6 -0.1 1.1
1.7 -0.1 1.1
1.8 -0.1 1.1
1.9 -0.1 1.1
-0.1 0 1.1
0 0 1.1
0.1 0 1.1
0.2 0 1.1
0.3 0 1.1
0.4 0 1.1
0.5 0 1.1
0.6 0 1.1
0.7 0 1.1
0.8 0 1.1
0.9 0 1.1
1 0 1.1
1.1 0 1.1
1.2 0 1.1
1.3 0 1.1
1.4 0 1.1
1.5 0 1.1
[...]
CELL_DATA 4000
VECTORS velocity double 
7.37781e-05 -5.09405e-05 0.00273313
0.000116549 -4.2703e-05 0.00447504
0.000115879 -3.72592e-05 0.00493052
9.19149e-05 -3.92005e-05 0.00507174
5.69583e-05 -4.24588e-05 0.00511912
1.68058e-05 -4.55767e-05 0.00512261
-2.53e-05 -4.88127e-05 0.00509366
-6.68056e-05 -5.24975e-05 0.00503642
-0.00010527 -5.66408e-05 0.00495374
-0.000138243 -6.09715e-05 0.00484892
-0.000163482 -6.49932e-05 0.00472632
-0.000179305 -6.80821e-05 0.00459218
-0.000185161 -6.95161e-05 0.00445503
-0.000182278 -6.85344e-05 0.00432533
-0.00017401 -6.45653e-05 0.00421465
-0.000166043 -5.75498e-05 0.00413403
-0.000165759 -4.84533e-05 0.00408668
-0.000178589 -3.99763e-05 0.00403536
-0.00019394 -3.57876e-05 0.00376962
-9.69701e-05 -2.40311e-05 0.00235635
0.000109334 -0.000274794 0.00461103
0.000160333 -0.000334575 0.00777436
0.000154985 -0.000348877 0.00864261
0.000121876 -0.000363826 0.0088963
7.52003e-05 -0.000375131 0.00897411
2.06629e-05 -0.000383223 0.00897603
-3.84742e-05 -0.000390256 0.00892142
-9.90893e-05 -0.000397635 0.00881584
-0.000157686 -0.000405615 0.00866378
-0.000210417 -0.000413627 0.00847096
-0.000253464 -0.000420492 0.00824519
-0.000283504 -0.000424614 0.00799766
-0.000298532 -0.000424169 0.00774358
-0.000298903 -0.000417279 0.00750228
-0.000288189 -0.000402504 0.00729594
-0.000273931 -0.000379528 0.00714723
-0.000267737 -0.00035017 0.00706493
-0.000280295 -0.000319748 0.00697768
-0.000295431 -0.000294352 0.00648012
-0.000147715 -0.000227022 0.00397474
0.000105369 -0.000704915 0.00519893
0.000141072 -0.00091657 0.00863844
0.000121172 -0.000978342 0.00954487
7.77588e-05 -0.00101874 0.00980155
2.37602e-05 -0.0010434 0.00988235
-3.70114e-05 -0.00105826 0.0098846
-0.000102393 -0.00106917 0.00982139
-0.000169483 -0.00107938 0.00969527
-0.00023443 -0.00108976 0.00951017
-0.000292629 -0.00109953 0.00927219
-0.000339213 -0.0011068 0.00899044
-0.000369692 -0.00110884 0.00867829
-0.000380897 -0.00110242 0.00835437
-0.000372311 -0.00108421 0.00804346
-0.000347357 -0.00105157 0.00777541
-0.000314646 -0.00100371 0.0075838
-0.000289107 -0.000943205 0.00749267
-0.000287388 -0.000877717 0.00744476
-0.000298785 -0.000813157 0.00701517
-0.000149392 -0.000629721 0.00442184
7.30861e-05 -0.00134457 0.00526721
7.34121e-05 -0.00180158 0.00839258
3.01637e-05 -0.00193991 0.00911773
-2.5735e-05 -0.00201881 0.00931257
-8.60075e-05 -0.00206274 0.00938231
-0.000150351 -0.00208662 0.00938612
-0.000218348 -0.00210174 0.00932078
-0.000287557 -0.0021141 0.00918315
-0.000353839 -0.0021255 0.00897575
-0.000411782 -0.00213512 0.00870441
-0.000455328 -0.00214029 0.00837863
-0.000478606 -0.00213699 0.00801312
-0.000477046 -0.0021204 0.00762933
-0.000449107 -0.0020854 0.00725688
-0.000397997 -0.00202769 0.00693358
-0.000333493 -0.0019456 0.00670551
-0.000274109 -0.00184235 0.0066205
-0.000244633 -0.00172778 0.00666841
-0.000249187 -0.00160346 0.0065042
-0.000124594 -0.0012295 0.00437148
1.46693e-05 -0.00218915 0.00481442
-4.06159e-05 -0.00299627 0.00712619
-0.00011652 -0.00324384 0.00748629
-0.000187317 -0.00337559 0.007562
-0.000252901 -0.00344537 0.00760621
-0.000318329 -0.00348093 0.00761011
-0.00038576 -0.00350087 0.00754518
-0.000453525 -0.0035149 0.00740012
-0.00051725 -0.00352623 0.00717515
-0.000570613 -0.00353404 0.00687546
-0.000606129 -0.00353488 0.00651055
-0.000616275 -0.00352326 0.00609614
-0.0005947 -0.00349243 0.00565633
-0.000538373 -0.00343519 0.00522585
-0.000450006 -0.00334511 0.00485105
-0.000340639 -0.00321902 0.00459313
-0.000232943 -0.00306033 0.00453177
-0.000162406 -0.0028807 0.00473133
-0.000156688 -0.00267145 0.00500726
-7.83439e-05 -0.00202033 0.00381528
-7.19867e-05 -0.00321328 0.00364496
-0.000204867 -0.00448166 0.00453752
-0.000323725 -0.00487531 0.00431544
-0.000412148 -0.00507559 0.00420053
-0.000481996 -0.00517837 0.00419782
-0.000545785 -0.00522861 0.0041969
-0.000609243 -0.00525434 0.00413328
-0.000671862 -0.00526995 0.00398425
-0.000729075 -0.0052805 0.00374667
-0.000773552 -0.00528536 0.00342465
-0.000796132 -0.00528035 0.00302733
-0.000787313 -0.00525835 0.00257125
-0.000738585 -0.00521025 0.00208326
-0.000644808 -0.00512616 0.00160309
-0.0005076 -0.0049969 0.00118629
-0.000339086 -0.00481709 0.00091179
-0.000166838 -0.00458949 0.000899959
-4.00945e-05 -0.00432661 0.00131956
-1.93368e-05 -0.00400174 0.00223946
-9.66838e-06 -0.00297865 0.00256821
-0.000190091 -0.00435736 0.00151089
-0.000424843 -0.00619374 0.00021833
-0.00059783 -0.00677203 -0.000855014
-0.00070665 -0.0070566 -0.0012518
-0.000779463 -0.00719927 -0.00133116
-0.000838569 -0.00726709 -0.00134508
-0.000894352 -0.00729968 -0.00140703
-0.000947867 -0.00731705 -0.00155528
-0.000994448 -0.00732651 -0.00179774
-0.00102571 -0.00732778 -0.00213213
-0.00103061 -0.00731597 -0.0025501
-0.000997151 -0.00728246 -0.00303472
-0.000914123 -0.00721547 -0.00355674
-0.00077363 -0.00710162 -0.00407137
-0.0005754 -0.00692809 -0.00451345
-0.000332073 -0.00668625 -0.00478334
-7.68104e-05 -0.00637709 -0.00470951
0.000124253 -0.00601214 -0.00398325
0.000167071 -0.00553775 -0.00217215
8.35355e-05 -0.00404949 0.000398083
-0.000341371 -0.00551356 -0.00182493
-0.000702464 -0.00800112 -0.00622333
-0.000940206 -0.00879961 -0.00847332
-0.00107152 -0.00918201 -0.0092657
-0.00114547 -0.00936996 -0.00946064
-0.00119654 -0.00945746 -0.00949966
-0.00124081 -0.00949772 -0.00956139
-0.00128129 -0.00951718 -0.00970475
-0.00131331 -0.00952582 -0.00994399
-0.00132753 -0.00952393 -0.0102793
-0.00131097 -0.00950596 -0.0107036
-0.00124855 -0.0094618 -0.0112001
-0.00112554 -0.00937691 -0.0117374
-0.000930398 -0.00923383 -0.0122658
-0.000659899 -0.00901495 -0.0127097
-0.000326158 -0.00870678 -0.0129458
3.19189e-05 -0.00830675 -0.0127389
0.000327715 -0.00782248 -0.011598
0.000401832 -0.00716377 -0.00859703
0.000200916 -0.00513321 -0.00291919
-0.000523358 -0.00651683 -0.00655016
-0.00103261 -0.00969193 -0.0151024
-0.00134366 -0.010736 -0.0189041
-0.00149823 -0.011224 -0.020226
-0.00157082 -0.0114591 -0.0205835
-0.0016104 -0.0115667 -0.0206631
-0.00163958 -0.0116148 -0.0207274
-0.00166375 -0.0116366 -0.0208622
-0.00167831 -0.0116452 -0.0210899
-0.00167295 -0.0116417 -0.0214134
-0.00163283 -0.0116202 -0.0218272
-0.00153956 -0.0115691 -0.0223152
-0.00137395 -0.0114712 -0.0228443
-0.00111966 -0.0113047 -0.0233601
-0.000768875 -0.011046 -0.0237763
-0.000331624 -0.0106748 -0.0239423
0.000148103 -0.0101819 -0.0235451
0.00056001 -0.0095669 -0.021864
0.00067755 -0.0086932 -0.0173316
0.000338775 -0.00607714 -0.00756308
-0.000727085 -0.00714344 -0.0127485
-0.00139826 -0.0109672 -0.0265511
-0.0017863 -0.0122626 -0.0323027
-0.00196258 -0.0128534 -0.0342985
-0.00203066 -0.0131318 -0.0348702
-0.00205557 -0.0132568 -0.0350078
-0.00206694 -0.0133116 -0.0350787
-0.00207283 -0.0133361 -0.0352019
-0.00206894 -0.0133458 -0.0354103
-0.002044 -0.0133434 -0.0357096
-0.00198137 -0.0133228 -0.0360957
-0.00185949 -0.0132716 -0.0365534
-0.00165413 -0.0131706 -0.0370491
-0.00134264 -0.0129937 -0.037524
-0.000910516 -0.0127103 -0.0378806
-0.000363098 -0.012291 -0.0379378
0.000252258 -0.0117162 -0.0372892
0.000799635 -0.0109708 -0.034932
0.000974954 -0.00986292 -0.028505
0.000487477 -0.00667399 -0.0136155
-0.000934803 -0.00712246 -0.0203275
-0.00176644 -0.0114509 -0.040396
-0.00222646 -0.0129726 -0.048474
-0.0024192 -0.0136472 -0.0512821
-0.00247893 -0.0139561 -0.052117
-0.002487 -0.0140916 -0.0523298
-0.00247959 -0.0141502 -0.0524122
-0.00246733 -0.0141769 -0.0525221
-0.00244666 -0.0141892 -0.0527046
-0.0024056 -0.0141911 -0.0529695
-0.00232607 -0.0141777 -0.0533135
-0.0021837 -0.0141364 -0.0537224
-0.00194924 -0.0140471 -0.0541627
-0.0015925 -0.0138806 -0.0545727
-0.00108962 -0.0135993 -0.0548439
-0.000437644 -0.0131629 -0.0547603
0.000316435 -0.0125362 -0.0538057
0.00101163 -0.011681 -0.050643
0.0012603 -0.0103413 -0.0419727
0.000630149 -0.00667216 -0.0209968
-0.00111801 -0.00616745 -0.028953
-0.00208442 -0.0107246 -0.0560387
-0.00259805 -0.0124042 -0.0667287
-0.0027967 -0.013122 -0.0704533
-0.00284346 -0.0134376 -0.0715864
-0.002834 -0.0135714 -0.0718858
-0.00280956 -0.0136283 -0.0719835
-0.00278241 -0.0136557 -0.0720805
-0.00274989 -0.0136717 -0.0722341
-0.0027002 -0.0136814 -0.0724585
-0.0026146 -0.0136816 -0.0727522
-0.00246693 -0.0136616 -0.0731018
-0.00222368 -0.0136024 -0.0734753
-0.00184666 -0.0134739 -0.0738098
-0.00130047 -0.0132334 -0.0739866
-0.000568991 -0.0128292 -0.0737516
0.000307422 -0.0122061 -0.0724618
0.00114812 -0.0112912 -0.0683987
0.00148414 -0.00975732 -0.0572101
0.000742069 -0.00580421 -0.0294065
-0.00123604 -0.00403445 -0.0380073
-0.002277 -0.00839608 -0.0723649
-0.00280745 -0.0101093 -0.0857617
-0.00299486 -0.0108031 -0.0904322
-0.00302352 -0.0110894 -0.0918686
-0.00299784 -0.0112042 -0.0922539
-0.00296119 -0.0112519 -0.0923669
-0.00292595 -0.0112771 -0.0924525
-0.00289011 -0.0112969 -0.0925788
-0.0028431 -0.0113166 -0.0927635
-0.00276701 -0.0113357 -0.0930076
-0.00263585 -0.0113472 -0.0933001
-0.00241388 -0.0113362 -0.0936123
-0.00205624 -0.0112755 -0.0938832
-0.00151497 -0.0111222 -0.0939868
-0.000756081 -0.0108159 -0.0936287
0.000196025 -0.0102798 -0.092027
0.00115404 -0.00939449 -0.0870474
0.00158413 -0.0077563 -0.0732275
0.000792064 -0.00383816 -0.0382855
-0.00123563 -0.000609922 -0.0465916
-0.00224603 -0.00420575 -0.0876915
-0.00273394 -0.00576325 -0.103549
-0.0028859 -0.00633822 -0.109053
-0.00289169 -0.00654874 -0.110743
-0.00285393 -0.00662397 -0.111194
-0.00281308 -0.00665366 -0.111316
-0.00277968 -0.00667287 -0.111391
-0.00275199 -0.00669468 -0.111496
-0.00272147 -0.00672439 -0.111649
-0.00267323 -0.00676404 -0.111856
-0.00258427 -0.00681222 -0.112108
-0.00242032 -0.0068613 -0.112385
-0.00213396 -0.0068927 -0.112633
-0.00166684 -0.00687048 -0.112724
-0.000964797 -0.00673423 -0.112328
-2.54131e-05 -0.00639006 -0.110524
0.000980352 -0.00566725 -0.104762
0.00149328 -0.00408551 -0.0885042
0.000746642 -0.00065437 -0.0468125
-0.00105027 0.00397902 -0.0535016
-0.00187318 0.00183062 -0.0995841
-0.00223708 0.000679541 -0.117059
-0.00232482 0.000337205 -0.12302
-0.00230541 0.000251995 -0.124814
-0.00226361 0.000236091 -0.125277
-0.00222989 0.000232234 -0.125393
-0.00221064 0.000222989 -0.125458
-0.002204 0.000202266 -0.125549
-0.00220422 0.000166026 -0.125686
-0.0022014 0.000109511 -0.125876
-0.00217901 2.79832e-05 -0.126119
-0.00210961 -8.0702e-05 -0.126404
-0.00195032 -0.000211725 -0.126693
-0.00164031 -0.000345646 -0.12687
-0.00110937 -0.000436614 -0.126586
-0.000320821 -0.00039023 -0.124819
0.000602833 5.43326e-06 -0.118684
0.0011498 0.00129015 -0.100755
0.000574901 0.00365902 -0.053858
-0.000609656 0.0092284 -0.0569659
-0.00104112 0.00924474 -0.103983
-0.0011865 0.00879372 -0.121056
-0.00118373 0.00879559 -0.126612
-0.00114253 0.00887386 -0.128185
-0.00110971 0.00892905 -0.128553
-0.00109778 0.00895503 -0.128632
-0.00110688 0.00895874 -0.128683
-0.00113459 0.00894336 -0.128769
-0.00117843 0.00890701 -0.128906
-0.00123475 0.00884314 -0.129101
-0.00129627 0.00874172 -0.129366
-0.00134801 0.00859069 -0.129704
-0.00136134 0.00837854 -0.130103
-0.0012872 0.00810032 -0.130478
-0.00105507 0.0077701 -0.130514
-0.000599178 0.00745345 -0.129201
3.91045e-05 0.00736359 -0.123599
0.000510136 0.00803877 -0.105944
0.000255068 0.00868109 -0.0576723
0.00016075 0.0140934 -0.053019
0.000337528 0.0168523 -0.092095
0.000481646 0.0173611 -0.104727
0.000574584 0.0177689 -0.108324
0.000614813 0.0180149 -0.109151
0.000612514 0.0181363 -0.109265
0.000578624 0.0181896 -0.109264
0.000520105 0.0182071 -0.109294
0.000439847 0.0182012 -0.109378
0.00033743 0.0181728 -0.109521
0.000210554 0.0181149 -0.109732
5.65408e-05 0.0180148 -0.11003
-0.000125323 0.0178537 -0.110435
-0.000329345 0.0176066 -0.110967
-0.0005361 0.0172438 -0.111602
-0.000703574 0.0167372 -0.112146
-0.000767995 0.0160908 -0.111852
-0.00068209 0.0154457 -0.108369
-0.000489694 0.0151998 -0.0950267
-0.000244847 0.013473 -0.0541844
0.00128546 0.0168165 -0.0288542
0.00220873 0.0223769 -0.0406533
0.00262057 0.0238866 -0.0422873
0.00273682 0.0246344 -0.0420246
0.00271075 0.0249942 -0.0416098
0.00261822 0.0251545 -0.0413513
0.00249195 0.0252244 -0.0412451
0.00234444 0.0252533 -0.041245
0.00217862 0.0252591 -0.0413199
0.00199231 0.0252446 -0.0414599
0.00177953 0.0252044 -0.0416713
0.00153029 0.0251264 -0.0419732
0.00122995 0.0249914 -0.0423986
0.000859223 0.0247698 -0.0429936
0.000395472 0.0244181 -0.0438095
-0.000181389 0.0238759 -0.0448585
-0.000871422 0.0230776 -0.0459824
-0.00159594 0.0220208 -0.046505
-0.00197052 0.0207455 -0.0441553
-0.00098526 0.0163165 -0.0303405
0.00254685 0.0149495 0.0618393
0.00403827 0.0215985 0.113686
0.00446925 0.0234153 0.1291
0.00441157 0.0241689 0.133613
0.00418191 0.0245013 0.135053
0.00390387 0.0246451 0.135549
0.00361767 0.0247094 0.135712
0.00333385 0.0247398 0.135735
0.0030526 0.0247523 0.135682
0.00276988 0.0247503 0.135573
0.00247795 0.0247308 0.135405
0.00216382 0.0246855 0.135165
0.00180587 0.0246008 0.134825
0.00136835 0.0244544 0.134336
0.000792843 0.0242101 0.133609
-1.27799e-05 0.0238099 0.13246
-0.00117018 0.0231709 0.130398
-0.00270035 0.0221971 0.125603
-0.00385138 0.0205471 0.110675
-0.00192569 0.0146415 0.0603884
0.00260673 0.00747473 0.390776
0.00370656 0.0107993 0.531844
0.0036692 0.0117076 0.556492
0.00325496 0.0120844 0.561243
0.00280302 0.0122507 0.562364
0.00240578 0.0123225 0.562688
0.0020714 0.0123547 0.562787
0.00178811 0.0123699 0.562803
0.00154298 0.0123761 0.562776
0.00132474 0.0123752 0.562717
0.00112311 0.0123654 0.562627
0.000925974 0.0123428 0.562502
0.000715377 0.0123004 0.562331
0.000460822 0.0122272 0.56209
0.000106889 0.012105 0.561725
-0.000448616 0.011905 0.561096
-0.00137478 0.0115855 0.559681
-0.00279878 0.0110986 0.554802
-0.00405979 0.0102736 0.530349
-0.00202989 0.00732077 0.389713
5.50232e-05 1.03164e-05 0.002745
0.000106304 3.39667e-05 0.00458681
0.000120957 4.27985e-05 0.0050675
0.000109572 4.43073e-05 0.00521606
8.23525e-05 4.34439e-05 0.00526836
4.54756e-05 4.16126e-05 0.00527685
2.8505e-06 3.88665e-05 0.00525298
-4.25171e-05 3.50939e-05 0.00520051
-8.78671e-05 3.03545e-05 0.00512191
-0.000130358 2.4894e-05 0.00501994
-0.000167186 1.9127e-05 0.00489843
-0.000195761 1.36307e-05 0.00476324
-0.000214219 9.13498e-06 0.00462274
-0.000222147 6.46399e-06 0.00448777
-0.000221044 6.37696e-06 0.0043709
-0.000214598 9.25552e-06 0.00428462
-0.000207633 1.46251e-05 0.00423337
-0.00020228 2.08184e-05 0.00417812
-0.000188571 2.63947e-05 0.00389349
-9.42853e-05 3.23178e-05 0.00239241
8.74399e-05 -6.65185e-05 0.00480126
0.000154933 -5.87279e-05 0.00818924
0.000175044 -5.3436e-05 0.00911786
0.000162942 -5.55489e-05 0.00938987
0.000130223 -5.91872e-05 0.00947761
8.3217e-05 -6.34722e-05 0.00948734
2.59789e-05 -6.93026e-05 0.00943905
-3.7959e-05 -7.73296e-05 0.00933801
-0.000104933 -8.75784e-05 0.00918829
-0.000170855 -9.95168e-05 0.00899501
-0.000231329 -0.000112154 0.00876534
-0.000281938 -0.000124037 0.00851002
-0.00031896 -0.000133275 0.00824434
-0.000340396 -0.000137703 0.00798842
-0.000346972 -0.000135303 0.00776629
-0.00034301 -0.000124954 0.00760325
-0.000335667 -0.000107565 0.00751039
-0.000328903 -8.68484e-05 0.00741259
-0.000303739 -6.74273e-05 0.00687232
-0.000151869 -4.08275e-05 0.00417312
9.31909e-05 -0.000321316 0.00556794
0.000158741 -0.000388315 0.00931161
0.000174074 -0.000405025 0.0102945
0.000157322 -0.000419103 0.0105754
0.000119965 -0.000428899 0.0106696
6.74832e-05 -0.00043659 0.0106818
3.40256e-06 -0.000445341 0.0106257
-6.88193e-05 -0.000456962 0.0105036
-0.000145193 -0.000471806 0.0103193
-0.000220995 -0.00048915 0.010078
-0.00029087 -0.000507382 0.00978808
-0.000349153 -0.000524022 0.00946237
-0.000390709 -0.000535784 0.00911958
-0.000412235 -0.000538816 0.00878543
-0.00041372 -0.000529439 0.0084923
-0.0004 -0.000505495 0.00827747
-0.000380451 -0.000468065 0.00816905
-0.00036288 -0.000423213 0.00810728
-0.000329488 -0.000378532 0.00762882
-0.000164744 -0.000290204 0.00478113
7.99272e-05 -0.000800477 0.00585389
0.000128968 -0.00102241 0.00935029
0.000132211 -0.00108363 0.0101601
0.000108104 -0.00111986 0.0103836
6.57933e-05 -0.00114029 0.0104708
8.75335e-06 -0.00115288 0.0104872
-6.05028e-05 -0.00116451 0.0104301
-0.000138727 -0.00117885 0.0102964
-0.000221652 -0.00119689 0.0100882
-0.000303853 -0.00121784 0.0098108
-0.000378859 -0.00123947 0.00947253
-0.000439569 -0.00125819 0.00908733
-0.000479165 -0.0012691 0.00867656
-0.00049277 -0.00126637 0.00827101
-0.0004795 -0.00124426 0.00791145
-0.000444698 -0.00119912 0.00764913
-0.000400657 -0.00113201 0.00753846
-0.00036155 -0.00105153 0.00757026
-0.000318177 -0.000965914 0.00736032
-0.000159088 -0.000751813 0.0049285
4.73555e-05 -0.00153622 0.00565754
6.38726e-05 -0.00201626 0.00840019
4.6902e-05 -0.00215008 0.0088478
1.27292e-05 -0.00222078 0.00895617
-3.44166e-05 -0.00225742 0.00902251
-9.4549e-05 -0.00227696 0.00904226
-0.000166871 -0.00229163 0.00898706
-0.000248665 -0.00230779 0.0088459
-0.000335449 -0.00232745 0.00861875
-0.000421035 -0.00234987 0.00830997
-0.000497708 -0.00237224 0.00792779
-0.000556651 -0.00238977 0.00748677
-0.000588984 -0.00239578 0.00701073
-0.000587813 -0.00238208 0.00653564
-0.000551022 -0.00234044 0.00611136
-0.000484359 -0.00226512 0.00580586
-0.000403811 -0.0021569 0.0057086
-0.00033251 -0.00202683 0.00589039
-0.000276565 -0.0018792 0.00613101
-0.000138283 -0.00145369 0.00460568
-7.52012e-06 -0.00254152 0.00476622
-4.24154e-05 -0.00340393 0.00613462
-8.93871e-05 -0.00364491 0.00599616
-0.000136977 -0.0037647 0.0059168
-0.000188817 -0.0038242 0.00594123
-0.000250205 -0.0038533 0.0059599
-0.000322918 -0.00387147 0.00590786
-0.00040515 -0.00388866 0.00576294
-0.000492354 -0.00390834 0.00552194
-0.000577565 -0.00393 0.00518794
-0.000651704 -0.00395028 0.00476849
-0.000703979 -0.00396316 0.00427848
-0.000723014 -0.00395989 0.00374418
-0.000699368 -0.00392961 0.00320655
-0.000629114 -0.00386094 0.00272522
-0.000518287 -0.00374548 0.0023877
-0.000387413 -0.00358319 0.00232817
-0.000271487 -0.00338701 0.0027296
-0.000199836 -0.00315004 0.00363302
-9.99181e-05 -0.00240781 0.00361118
-8.86808e-05 -0.00379763 0.00290357
-0.000197259 -0.00518043 0.00210263
-0.000285768 -0.00556869 0.00109771
-0.00035073 -0.00575379 0.000736377
-0.000407125 -0.00584343 0.000688735
-0.000467565 -0.00588504 0.000698239
-0.000537467 -0.0059074 0.000649836
-0.000616396 -0.00592502 0.000505945
-0.000699867 -0.00594322 0.000258769
-0.000780196 -0.00596191 -9.05319e-05
-0.000846818 -0.0059773 -0.000535642
-0.000886638 -0.00598213 -0.00106174
-0.00088538 -0.0059654 -0.0016407
-0.000830474 -0.00591315 -0.00222654
-0.000715485 -0.00581022 -0.00274937
-0.000546405 -0.00564466 -0.00309898
-0.000349077 -0.00541489 -0.00308513
-0.000173543 -0.00513432 -0.00237442
-8.20023e-05 -0.00477521 -0.000548121
-4.10011e-05 -0.00359708 0.00168578
-0.000198977 -0.00523821 -0.00021104
-0.000405603 -0.00727826 -0.00415271
-0.000548027 -0.00785613 -0.00636639
-0.000634442 -0.00812265 -0.00712863
-0.000695039 -0.00824934 -0.00728881
-0.000752029 -0.00830627 -0.007301
-0.000815515 -0.00833361 -0.0073472
-0.000886893 -0.0083513 -0.00748564
-0.000961974 -0.00836693 -0.00773027
-0.00103253 -0.0083811 -0.00808257
-0.00108647 -0.00838972 -0.00853791
-0.0011081 -0.00838427 -0.00908207
-0.00107977 -0.00835148 -0.00968563
-0.000984937 -0.00827383 -0.010298
-0.000813731 -0.0081316 -0.0108384
-0.000571477 -0.00790815 -0.0111707
-0.000289749 -0.00759878 -0.011035
-3.76112e-05 -0.00721502 -0.00990267
7.9403e-05 -0.00669649 -0.00683938
3.97015e-05 -0.00496069 -0.00143622
-0.000338411 -0.006733 -0.00482314
-0.000667423 -0.00954561 -0.0130234
-0.000875755 -0.0103529 -0.0168433
-0.000987265 -0.0107143 -0.0181482
-0.00105142 -0.010883 -0.0184709
-0.00110232 -0.010957 -0.0185213
-0.00115581 -0.0109899 -0.0185684
-0.00121559 -0.0110075 -0.0186975
-0.00127801 -0.0110201 -0.0189306
-0.00133435 -0.0110292 -0.0192721
-0.00137102 -0.0110304 -0.0197193
-0.00136966 -0.0110144 -0.0202593
-0.00130869 -0.0109656 -0.0208618
-0.00116674 -0.0108628 -0.021472
-0.000929266 -0.0106808 -0.0219979
-0.000599663 -0.0103968 -0.022274
-0.000215183 -0.0100005 -0.021956