# vtk DataFile Version 2.0 
Visualization 
ASCII 
DATASET STRUCTURED_GRID 
DIMENSIONS 21 21 11
POINTS 4851 float
-0.1 -0.1 0.9
0 -0.1 0.9
0.1 -0.1 0.9
0.2 -0.1 0.9
0.3 -0.1 0.9
0.4 -0.1 0.9
0.5 -0.1 0.9
0.6 -0.1 0.9
0.7 -0.1 0.9
0.8 -0.1 0.9
0.9 -0.1 0.9
1 -0.1 0.9
1.1 -0.1 0.9
1.2 -0.1 0.9
1.3 -0.1 0.9
1.4 -0.1 0.9
1.5 -0.1 0.9
1.6 -0.1 0.9
1.7 -0.1 0.9
1.8 -0.1 0.9
1.9 -0.1 0.9
-0.1 0 0.9
0 0 0.9
0.1 0 0.9
0.2 0 0.9
0.3 0 0.9
0.4 0 0.9
0.5 0 0.9
0.6 0 0.9
0.7 0 0.9
0.8 0 0.9
0.9 0 0.9
1 0 0.9
1.1 0 0.9
1.2 0 0.9
1.3 0 0.9
1.4 0 0.9
1.5 0 0.9
1.6 0 0.9
1.7 0 0.9
1.8 0 0.9
1.9 0 0.9
-0.1 0.1 0.9
0 0.1 0.9
0.1 0.1 0.9
0.2 0.1 0.9
0.3 0.1 0.9
0.4 0.1 0.9
0.5 0.1 0.9
0.6 0.1 0.9
0.7 0.1 0.9
0.8 0.1 0.9
0.9 0.1 0.9
1 0.1 0.9
1.1 0.1 0.9
1.2 0.1 0.9
1.3 0.1 0.9
1.4 0.1 0.9
1.5 0.1 0.9
1.6 0.1 0.9
1.7 0.1 0.9
1.8 0.1 0.9
1.9 0.1 0.9
-0.1 0.2 0.9
0 0.2 0.9
0.1 0.2 0.9
0.2 0.2 0.9
0.3 0.2 0.9
0.4 0.2 0.9
0.5 0.2 0.9
0.6 0.2 0.9
0.7 0.2 0.9
0.8 0.2 0.9
0.9 0.2 0.9
1 0.2 0.9
1.1 0.2 0.9
1.2 0.2 0.9
1.3 0.2 0.9
1.4 0.2 0.9
1.5 0.2 0.9
1.6 0.2 0.9
1.7 0.2 0.9
1.8 0.2 0.9
1.9 0.2 0.9
-0.1 0.3 0.9
0 0.3 0.9
0.1 0.3 0.9
0.2 0.3 0.9
0.3 0.3 0.9
0.4 0.3 0.9
0.5 0.3 0.9
0.6 0.3 0.9
0.7 0.3 0.9
0.8 0.3 0.9
0.9 0.3 0.9
1 0.3 0.9
1.1 0.3 0.9
1.2 0.3 0.9
1.3 0.3 0.9
1.4 0.3 0.9
1.5 0.3 0.9
1.6 0.3 0.9
1.7 0.3 0.9
1.8 0.3 0.9
1.9 0.3 0.9
-0.1 0.4 0.9
0 0.4 0.9
0.1 0.4 0.9
0.2 0.4 0.9
0.3 0.4 0.9
0.4 0.4 0.9
0.5 0.4 0.9
0.6 0.4 0.9
0.7 0.4 0.9
0.8 0.4 0.9
0.9 0.4 0.9
1 0.4 0.9
1.1 0.4 0.9
1.2 0.4 0.9
1.3 0.4 0.9
1.4 0.4 0.9
1.5 0.4 0.9
1.6 0.4 0.9
1.7 0.4 0.9
1.8 0.4 0.9
1.9 0.4 0.9
-0.1 0.5 0.9
0 0.5 0.9
0.1 0.5 0.9
0.2 0.5 0.9
0.3 0.5 0.9
0.4 0.5 0.9
0.5 0.5 0.9
0.6 0.5 0.9
0.7 0.5 0.9
0.8 0.5 0.9
0.9 0.5 0.9
1 0.5 0.9
1.1 0.5 0.9
1.2 0.5 0.9
1.3 0.5 0.9
1.4 0.5 0.9
1.5 0.5 0.9
1.6 0.5 0.9
1.7 0.5 0.9
1.8 0.5 0.9
1.9 0.5 0.9
-0.1 0.6 0.9
0 0.6 0.9
0.1 0.6 0.9
0.2 0.6 0.9
0.3 0.6 0.9
0.4 0.6 0.9
0.5 0.6 0.9
0.6 0.6 0.9
0.7 0.6 0.9
0.8 0.6 0.9
0.9 0.6 0.9
1 0.6 0.9
1.1 0.6 0.9
1.2 0.6 0.9
1.3 0.6 0.9
1.4 0.6 0.9
1.5 0.6 0.9
1.6 0.6 0.9
1.7 0.6 0.9
1.8 0.6 0.9
1.9 0.6 0.9
-0.1 0.7 0.9
0 0.7 0.9
0.1 0.7 0.9
0.2 0.7 0.9
0.3 0.7 0.9
0.4 0.7 0.9
0.5 0.7 0.9
0.6 0.7 0.9
0.7 0.7 0.9
0.8 0.7 0.9
0.9 0.7 0.9
1 0.7 0.9
1.1 0.7 0.9
1.2 0.7 0.9
1.3 0.7 0.9
1.4 0.7 0.9
1.5 0.7 0.9
1.6 0.7 0.9
1.7 0.7 0.9
1.8 0.7 0.9
1.9 0.7 0.9
-0.1 0.8 0.9
0 0.8 0.9
0.1 0.8 0.9
0.2 0.8 0.9
0.3 0.8 0.9
0.4 0.8 0.9
0.5 0.8 0.9
0.6 0.8 0.9
0.7 0.8 0.9
0.8 0.8 0.9
0.9 0.8 0.9
1 0.8 0.9
1.1 0.8 0.9
1.2 0.8 0.9
1.3 0.8 0.9
1.4 0.8 0.9
1.5 0.8 0.9
1.6 0.8 0.9
1.7 0.8 0.9
1.8 0.8 0.9
1.9 0.8 0.9
-0.1 0.9 0.9
0 0.9 0.9
0.1 0.9 0.9
0.2 0.9 0.9
0.3 0.9 0.9
0.4 0.9 0.9
0.5 0.9 0.9
0.6 0.9 0.9
0.7 0.9 0.9
0.8 0.9 0.9
0.9 0.9 0.9
1 0.9 0.9
1.1 0.9 0.9
1.2 0.9 0.9
1.3 0.9 0.9
1.4 0.9 0.9
1.5 0.9 0.9
1.6 0.9 0.9
1.7 0.9 0.9
1.8 0.9 0.9
1.9 0.9 0.9
-0.1 1 0.9
0 1 0.9
0.1 1 0.9
0.2 1 0.9
0.3 1 0.9
0.4 1 0.9
0.5 1 0.9
0.6 1 0.9
0.7 1 0.9
0.8 1 0.9
0.9 1 0.9
1 1 0.9
1.1 1 0.9
1.2 1 0.9
1.3 1 0.9
1.4 1 0.9
1.5 1 0.9
1.6 1 0.9
1.7 1 0.9
1.8 1 0.9
1.9 1 0.9
-0.1 1.1 0.9
0 1.1 0.9
0.1 1.1 0.9
0.2 1.1 0.9
0.3 1.1 0.9
0.4 1.1 0.9
0.5 1.1 0.9
0.6 1.1 0.9
0.7 1.1 0.9
0.8 1.1 0.9
0.9 1.1 0.9
1 1.1 0.9
1.1 1.1 0.9
1.2 1.1 0.9
1.3 1.1 0.9
1.4 1.1 0.9
1.5 1.1 0.9
1.6 1.1 0.9
1.7 1.1 0.9
1.8 1.1 0.9
1.9 1.1 0.9
-0.1 1.2 0.9
0 1.2 0.9
0.1 1.2 0.9
0.2 1.2 0.9
0.3 1.2 0.9
0.4 1.2 0.9
0.5 1.2 0.9
0.6 1.2 0.9
0.7 1.2 0.9
0.8 1.2 0.9
0.9 1.2 0.9
1 1.2 0.9
1.1 1.2 0.9
1.2 1.2 0.9
1.3 1.2 0.9
1.4 1.2 0.9
1.5 1.2 0.9
1.6 1.2 0.9
1.7 1.2 0.9
1.8 1.2 0.9
1.9 1.2 0.9
-0.1 1.3 0.9
0 1.3 0.9
0.1 1.3 0.9
0.2 1.3 0.9
0.3 1.3 0.9
0.4 1.3 0.9
0.5 1.3 0.9
0.6 1.3 0.9
0.7 1.3 0.9
0.8 1.3 0.9
0.9 1.3 0.9
1 1.3 0.9
1.1 1.3 0.9
1.2 1.3 0.9
1.3 1.3 0.9
1.4 1.3 0.9
1.5 1.3 0.9
1.6 1.3 0.9
1.7 1.3 0.9
1.8 1.3 0.9
1.9 1.3 0.9
-0.1 1.4 0.9
0 1.4 0.9
0.1 1.4 0.9
0.2 1.4 0.9
0.3 1.4 0.9
0.4 1.4 0.9
0.5 1.4 0.9
0.6 1.4 0.9
0.7 1.4 0.9
0.8 1.4 0.9
0.9 1.4 0.9
1 1.4 0.9
1.1 1.4 0.9
1.2 1.4 0.9
1.3 1.4 0.9
1.4 1.4 0.9
1.5 1.4 0.9
1.6 1.4 0.9
1.7 1.4 0.9
1.8 1.4 0.9
1.9 1.4 0.9
-0.1 1.5 0.9
0 1.5 0.9
0.1 1.5 0.9
0.2 1.5 0.9
0.3 1.5 0.9
0.4 1.5 0.9
0.5 1.5 0.9
0.6 1.5 0.9
0.7 1.5 0.9
0.8 1.5 0.9
0.9 1.5 0.9
1 1.5 0.9
1.1 1.5 0.9
1.2 1.5 0.9
1.3 1.5 0.9
1.4 1.5 0.9
1.5 1.5 0.9
1.6 1.5 0.9
1.7 1.5 0.9
1.8 1.5 0.9
1.9 1.5 0.9
-0.1 1.6 0.9
0 1.6 0.9
0.1 1.6 0.9
0.2 1.6 0.9
0.3 1.6 0.9
0.4 1.6 0.9
0.5 1.6 0.9
0.6 1.6 0.9
0.7 1.6 0.9
0.8 1.6 0.9
0.9 1.6 0.9
1 1.6 0.9
1.1 1.6 0.9
1.2 1.6 0.9
1.3 1.6 0.9
1.4 1.6 0.9
1.5 1.6 0.9
1.6 1.6 0.9
1.7 1.6 0.9
1.8 1.6 0.9
1.9 1.6 0.9
-0.1 1.7 0.9
0 1.7 0.9
0.1 1.7 0.9
0.2 1.7 0.9
0.3 1.7 0.9
0.4 1.7 0.9
0.5 1.7 0.9
0.6 1.7 0.9
0.7 1.7 0.9
0.8 1.7 0.9
0.9 1.7 0.9
1 1.7 0.9
1.1 1.7 0.9
1.2 1.7 0.9
1.3 1.7 0.9
1.4 1.7 0.9
1.5 1.7 0.9
1.6 1.7 0.9
1.7 1.7 0.9
1.8 1.7 0.9
1.9 1.7 0.9
-0.1 1.8 0.9
0 1.8 0.9
0.1 1.8 0.9
0.2 1.8 0.9
0.3 1.8 0.9
0.4 1.8 0.9
0.5 1.8 0.9
0.6 1.8 0.9
0.7 1.8 0.9
0.8 1.8 0.9
0.9 1.8 0.9
1 1.8 0.9
1.1 1.8 0.9
1.2 1.8 0.9
1.3 1.8 0.9
1.4 1.8 0.9
1.5 1.8 0.9
1.6 1.8 0.9
1.7 1.8 0.9
1.8 1.8 0.9
1.9 1.8 0.9
-0.1 1.9 0.9
0 1.9 0.9
0.1 1.9 0.9
0.2 1.9 0.9
0.3 1.9 0.9
0.4 1.9 0.9
0.5 1.9 0.9
0.6 1.9 0.9
0.7 1.9 0.9
0.8 1.9 0.9
0.9 1.9 0.9
1 1.9 0.9
1.1 1.9 0.9
1.2 1.9 0.9
1.3 1.9 0.9
1.4 1.9 0.9
1.5 1.9 0.9
1.6 1.9 0.9
1.7 1.9 0.9
1.8 1.9 0.9
1.9 1.9 0.9
-0.1 -0.1 1
0 -0.1 1
0.1 -0.1 1
0.2 -0.1 1
0.3 -0.1 1
0.4 -0.1 1
0.5 -0.1 1
0.6 -0.1 1
0.7 -0.1 1
0.8 -0.1 1
0.9 -0.1 1
1 -0.1 1
1.1 -0.1 1
1.2 -0.1 1
1.3 -0.1 1
1.4 -0.1 1
1.5 -0.1 1
1.6 -0.1 1
1.7 -0.1 1
1.8 -0.1 1
1.9 -0.1 1
-0.1 0 1
0 0 1
0.1 0 1
0.2 0 1
0.3 0 1
0.4 0 1
0.5 0 1
0.6 0 1
0.7 0 1
0.8 0 1
0.9 0 1
1 0 1
1.1 0 1
1.2 0 1
1.3 0 1
1.4 0 1
1.5 0 1
1.6 0 1
1.7 0 1
1.8 0 1
1.9 0 1
-0.1 0.1 1
0 0.1 1
0.1 0.1 1
0.2 0.1 1
0.3 0.1 1
0.4 0.1 1
0.5 0.1 1
0.6 0.1 1
0.7 0.1 1
0.8 0.1 1
0.9 0.1 1
1 0.1 1
1.1 0.1 1
1.2 0.1 1
1.3 0.1 1
1.4 0.1 1
1.5 0.1 1
1.6 0.1 1
1.7 0.1 1
1.8 0.1 1
1.9 0.1 1
-0.1 0.2 1
0 0.2 1
0.1 0.2 1
0.2 0.2 1
0.3 0.2 1
0.4 0.2 1
0.5 0.2 1
0.6 0.2 1
0.7 0.2 1
0.8 0.2 1
0.9 0.2 1
1 0.2 1
1.1 0.2 1
1.2 0.2 1
1.3 0.2 1
1.4 0.2 1
1.5 0.2 1
1.6 0.2 1
1.7 0.2 1
1.8 0.2 1
1.9 0.2 1
-0.1 0.3 1
0 0.3 1
0.1 0.3 1
0.2 0.3 1
0.3 0.3 1
0.4 0.3 1
0.5 0.3 1
0.6 0.3 1
0.7 0.3 1
0.8 0.3 1
0.9 0.3 1
1 0.3 1
1.1 0.3 1
1.2 0.3 1
1.3 0.3 1
1.4 0.3 1
1.5 0.3 1
1.6 0.3 1
1.7 0.3 1
1.8 0.3 1
1.9 0.3 1
-0.1 0.4 1
0 0.4 1
0.1 0.4 1
0.2 0.4 1
0.3 0.4 1
0.4 0.4 1
0.5 0.4 1
0.6 0.4 1
0.7 0.4 1
0.8 0.4 1
0.9 0.4 1
1 0.4 1
1.1 0.4 1
1.2 0.4 1
1.3 0.4 1
1.4 0.4 1
1.5 0.4 1
1.6 0.4 1
1.7 0.4 1
1.8 0.4 1
1.9 0.4 1
-0.1 0.5 1
0 0.5 1
0.1 0.5 1
0.2 0.5 1
0.3 0.5 1
0.4 0.5 1
0.5 0.5 1
0.6 0.5 1
0.7 0.5 1
0.8 0.5 1
0.9 0.5 1
1 0.5 1
1.1 0.5 1
1.2 0.5 1
1.3 0.5 1
1.4 0.5 1
1.5 0.5 1
1.6 0.5 1
1.7 0.5 1
1.8 0.5 1
1.9 0.5 1
-0.1 0.6 1
0 0.6 1
0.1 0.6 1
0.2 0.6 1
0.3 0.6 1
0.4 0.6 1
0.5 0.6 1
0.6 0.6 1
0.7 0.6 1
0.8 0.6 1
0.9 0.6 1
1 0.6 1
1.1 0.6 1
1.2 0.6 1
1.3 0.6 1
1.4 0.6 1
1.5 0.6 1
1.6 0.6 1
1.7 0.6 1
1.8 0.6 1
1.9 0.6 1
-0.1 0.7 1
0 0.7 1
0.1 0.7 1
0.2 0.7 1
0.3 0.7 1
0.4 0.7 1
0.5 0.7 1
0.6 0.7 1
0.7 0.7 1
0.8 0.7 1
0.9 0.7 1
1 0.7 1
1.1 0.7 1
1.2 0.7 1
1.3 0.7 1
1.4 0.7 1
1.5 0.7 1
1.6 0.7 1
1.7 0.7 1
1.8 0.7 1
1.9 0.7 1
-0.1 0.8 1
0 0.8 1
0.1 0.8 1
0.2 0.8 1
0.3 0.8 1
0.4 0.8 1
0.5 0.8 1
0.6 0.8 1
0.7 0.8 1
0.8 0.8 1
0.9 0.8 1
1 0.8 1
1.1 0.8 1
1.2 0.8 1
1.3 0.8 1
1.4 0.8 1
1.5 0.8 1
1.6 0.8 1
1.7 0.8 1
1.8 0.8 1
1.9 0.8 1
-0.1 0.9 1
0 0.9 1
0.1 0.9 1
0.2 0.9 1
0.3 0.9 1
0.4 0.9 1
0.5 0.9 1
0.6 0.9 1
0.7 0.9 1
0.8 0.9 1
0.9 0.9 1
1 0.9 1
1.1 0.9 1
1.2 0.9 1
1.3 0.9 1
1.4 0.9 1
1.5 0.9 1
1.6 0.9 1
1.7 0.9 1
1.8 0.9 1
1.9 0.9 1
-0.1 1 1
0 1 1
0.1 1 1
0.2 1 1
0.3 1 1
0.4 1 1
0.5 1 1
0.6 1 1
0.7 1 1
0.8 1 1
0.9 1 1
1 1 1
1.1 1 1
1.2 1 1
1.3 1 1
1.4 1 1
1.5 1 1
1.6 1 1
1.7 1 1
1.8 1 1
1.9 1 1
-0.1 1.1 1
0 1.1 1
0.1 1.1 1
0.2 1.1 1
0.3 1.1 1
0.4 1.1 1
0.5 1.1 1
0.6 1.1 1
0.7 1.1 1
0.8 1.1 1
0.9 1.1 1
1 1.1 1
1.1 1.1 1
1.2 1.1 1
1.3 1.1 1
1.4 1.1 1
1.5 1.1 1
1.6 1.1 1
1.7 1.1 1
1.8 1.1 1
1.9 1.1 1
-0.1 1.2 1
0 1.2 1
0.1 1.2 1
0.2 1.2 1
0.3 1.2 1
0.4 1.2 1
0.5 1.2 1
0.6 1.2 1
0.7 1.2 1
0.8 1.2 1
0.9 1.2 1
1 1.2 1
1.1 1.2 1
1.2 1.2 1
1.3 1.2 1
1.4 1.2 1
1.5 1.2 1
1.6 1.2 1
1.7 1.2 1
1.8 1.2 1
1.9 1.2 1
-0.1 1.3 1
0 1.3 1
0.1 1.3 1
0.2 1.3 1
0.3 1.3 1
0.4 1.3 1
0.5 1.3 1
0.6 1.3 1
0.7 1.3 1
0.8 1.3 1
0.9 1.3 1
1 1.3 1
1.1 1.3 1
1.2 1.3 1
1.3 1.3 1
1.4 1.3 1
1.5 1.3 1
1.6 1.3 1
1.7 1.3 1
1.8 1.3 1
1.9 1.3 1
-0.1 1.4 1
0 1.4 1
0.1 1.4 1
0.2 1.4 1
0.3 1.4 1
0.4 1.4 1
0.5 1.4 1
0.6 1.4 1
0.7 1.4 1
0.8 1.4 1
0.9 1.4 1
1 1.4 1
1.1 1.4 1
1.2 1.4 1
1.3 1.4 1
1.4 1.4 1
1.5 1.4 1
1.6 1.4 1
1.7 1.4 1
1.8 1.4 1
1.9 1.4 1
-0.1 1.5 1
0 1.5 1
0.1 1.5 1
0.2 1.5 1
0.3 1.5 1
0.4 1.5 1
0.5 1.5 1
0.6 1.5 1
0.7 1.5 1
0.8 1.5 1
0.9 1.5 1
1 1.5 1
1.1 1.5 1
1.2 1.5 1
1.3 1.5 1
1.4 1.5 1
1.5 1.5 1
1.6 1.5 1
1.7 1.5 1
1.8 1.5 1
1.9 1.5 1
-0.1 1.6 1
0 1.6 1
0.1 1.6 1
0.2 1.6 1
0.3 1.6 1
0.4 1.6 1
0.5 1.6 1
0.6 1.6 1
0.7 1.6 1
0.8 1.6 1
0.9 1.6 1
1 1.6 1
1.1 1.6 1
1.2 1.6 1
1.3 1.6 1
1.4 1.6 1
1.5 1.6 1
1.6 1.6 1
1.7 1.6 1
1.8 1.6 1
1.9 1.6 1
-0.1 1.7 1
0 1.7 1
0.1 1.7 1
0.2 1.7 1
0.3 1.7 1
0.4 1.7 1
0.5 1.7 1
0.6 1.7 1
0.7 1.7 1
0.8 1.7 1
0.9 1.7 1
1 1.7 1
1.1 1.7 1
1.2 1.7 1
1.3 1.7 1
1.4 1.7 1
1.5 1.7 1
1.6 1.7 1
1.7 1.7 1
1.8 1.7 1
1.9 1.7 1
-0.1 1.8 1
0 1.8 1
0.1 1.8 1
0.2 1.8 1
0.3 1.8 1
0.4 1.8 1
0.5 1.8 1
0.6 1.8 1
0.7 1.8 1
0.8 1.8 1
0.9 1.8 1
1 1.8 1
1.1 1.8 1
1.2 1.8 1
1.3 1.8 1
1.4 1.8 1
1.5 1.8 1
1.6 1.8 1
1.7 1.8 1
1.8 1.8 1
1.9 1.8 1
-0.1 1.9 1
0 1.9 1
0.1 1.9 1
0.2 1.9 1
0.3 1.9 1
0.4 1.9 1
0.5 1.9 1
0.6 1.9 1
0.7 1.9 1
0.8 1.9 1
0.9 1.9 1
1 1.9 1
1.1 1.9 1
1.2 1.9 1
1.3 1.9 1
1.4 1.9 1
1.5 1.9 1
1.6 1.9 1
1.7 1.9 1
1.8 1.9 1
1.9 1.9 1
-0.1 -0.1 1.1
0 -0.1 1.1
0.1 -0.1 1.1
0.2 -0.1 1.1
0.3 -0.1 1.1
0.4 -0.1 1.1
0.5 -0.1 1.1
0.6 -0.1 1.1
0.7 -0.1 1.1
0.8 -0.1 1.1
0.9 -0.1 1.1
1 -0.1 1.1
1.1 -0.1 1.1
1.2 -0.1 1.1
1.3 -0.1 1.1
1.4 -0.1 1.1
1.5 -0.1 1.1
1.6 -0.1 1.1
1.7 -0.1 1.1
1.8 -0.1 1.1
1.9 -0.1 1.1
-0.1 0 1.1
0 0 1.1
0.1 0 1.1
0.2 0 1.1
0.3 0 1.1
0.4 0 1.1
0.5 0 1.1
0.6 0 1.1
0.7 0 1.1
0.8 0 1.1
0.9 0 1.1
1 0 1.1
1.1 0 1.1
1.2 0 1.1
1.3 0 1.1
1.4 0 1.1
1.5 0 1.1
[...]
CELL_DATA 4000
VECTORS velocity double 
6.77338e-05 -3.36675e-05 0.0029944
0.000126292 -9.64584e-06 0.00473041
0.000142056 1.11683e-06 0.00526354
0.000128151 2.09434e-06 0.0054552
9.68836e-05 -1.35719e-07 0.00552919
5.56156e-05 -3.36949e-06 0.0055455
9.17473e-06 -7.37795e-06 0.00552147
-3.88355e-05 -1.22878e-05 0.00546351
-8.50136e-05 -1.79697e-05 0.00537512
-0.000126132 -2.39994e-05 0.00525988
-0.000159377 -2.97605e-05 0.0051229
-0.000182689 -3.45047e-05 0.00497156
-0.000195324 -3.73423e-05 0.00481617
-0.000198224 -3.74842e-05 0.00466914
-0.000194706 -3.44885e-05 0.00454355
-0.000189706 -2.85049e-05 0.00444972
-0.000188737 -2.10979e-05 0.00438653
-0.0001932 -1.48883e-05 0.00430773
-0.000187894 -1.26212e-05 0.00399638
-9.39468e-05 -6.29501e-06 0.00261162
0.000109324 -0.000201591 0.0049776
0.000188398 -0.000212994 0.00836404
0.000210076 -0.000211752 0.00946523
0.000193801 -0.000218965 0.00985105
0.000154328 -0.000227453 0.00998926
9.97702e-05 -0.000235538 0.0100136
3.54713e-05 -0.000244181 0.00996173
-3.40761e-05 -0.0002543 0.00984621
-0.000104158 -0.000265844 0.00967377
-0.000169925 -0.000277984 0.00945116
-0.000226727 -0.000289233 0.00918798
-0.000270537 -0.000297644 0.00889807
-0.000298934 -0.00030097 0.00860041
-0.000311876 -0.00029714 0.00831824
-0.000312775 -0.000284925 0.00807672
-0.000308696 -0.000264514 0.00789598
-0.0003087 -0.000238872 0.00777085
-0.000317849 -0.000214218 0.00760028
-0.000310677 -0.000196148 0.00694732
-0.000155339 -0.000156604 0.00430249
0.000112467 -0.000576928 0.0058667
0.000185909 -0.000701171 0.00980594
0.00019927 -0.000737086 0.0110919
0.000175355 -0.000765451 0.011547
0.000128849 -0.000785735 0.0117134
6.69322e-05 -0.00080044 0.0117443
-5.68194e-06 -0.00081364 0.0116809
-8.44402e-05 -0.000827956 0.0115361
-0.000164122 -0.000843775 0.0113171
-0.000238906 -0.000859903 0.0110315
-0.000302874 -0.00087396 0.0106908
-0.00035056 -0.00088264 0.0103119
-0.00037825 -0.000881997 0.00991891
-0.000385141 -0.000868334 0.00954228
-0.000374663 -0.000839124 0.00921653
-0.000355449 -0.000794367 0.00897258
-0.000340327 -0.000738237 0.00881418
-0.00033902 -0.000680547 0.00863537
-0.00032752 -0.000629242 0.00794402
-0.00016376 -0.00050586 0.00499773
8.64872e-05 -0.00118453 0.00627606
0.000131833 -0.00151622 0.0101662
0.000125323 -0.00162094 0.0113895
8.94288e-05 -0.00168529 0.0118301
3.5414e-05 -0.00172395 0.0120022
-3.23109e-05 -0.00174751 0.0120384
-0.000110505 -0.00176528 0.0119701
-0.00019482 -0.00178257 0.0118063
-0.000279551 -0.00180071 0.0115528
-0.000357886 -0.00181833 0.0112174
-0.00042248 -0.001832 0.010812
-0.000466119 -0.00183685 0.0103556
-0.000483543 -0.00182709 0.00987649
-0.000472827 -0.00179683 0.00941193
-0.000437389 -0.00174186 0.00900667
-0.000387392 -0.00166139 0.00870598
-0.000340081 -0.00156091 0.00853498
-0.000312914 -0.00145363 0.00842066
-0.000292736 -0.00134726 0.00791408
-0.000146368 -0.00106958 0.00522801
3.19431e-05 -0.00203007 0.00615843
2.56507e-05 -0.00268068 0.00946362
-1.3038e-05 -0.00289073 0.0104095
-6.5324e-05 -0.00300775 0.0107608
-0.000126989 -0.00307239 0.0109167
-0.000198578 -0.00310761 0.0109549
-0.00027933 -0.00313025 0.0108846
-0.000365622 -0.00314939 0.0107069
-0.000451374 -0.00316781 0.010425
-0.000528589 -0.0031842 0.0100457
-0.000588299 -0.00319416 0.00958137
-0.000621325 -0.00319101 0.00905237
-0.000620245 -0.00316678 0.00849068
-0.000581659 -0.00311298 0.00794105
-0.000508422 -0.00302284 0.0074596
-0.000412456 -0.00289445 0.00711019
-0.000315925 -0.00273394 0.0069502
-0.000247422 -0.00255831 0.00697261
-0.000213973 -0.00236977 0.00685523
-0.000106987 -0.00185055 0.0049454
-5.37425e-05 -0.00309198 0.00528066
-0.000137575 -0.0041841 0.00734289
-0.000222026 -0.00454058 0.00776
-0.000295597 -0.00472847 0.00793227
-0.000365035 -0.00482732 0.00804304
-0.000438185 -0.00487736 0.00807614
-0.000517965 -0.00490541 0.00800507
-0.000602019 -0.00492562 0.00781815
-0.000684191 -0.00494277 0.00751423
-0.000755286 -0.00495572 0.00709851
-0.000804381 -0.00495919 0.00658287
-0.000820041 -0.00494455 0.00598902
-0.0007921 -0.00490118 0.00535264
-0.00071483 -0.00481748 0.00472604
-0.000590295 -0.0046835 0.00417846
-0.000431668 -0.00449481 0.00379599
-0.000267341 -0.004258 0.00368103
-0.000140025 -0.00399255 0.00392718
-8.76951e-05 -0.00368934 0.00443755
-4.38475e-05 -0.0028293 0.00393327
-0.000173273 -0.00430938 0.00335158
-0.000362897 -0.00596625 0.00331886
-0.000507798 -0.00651305 0.00288786
-0.000607898 -0.0067905 0.00276535
-0.000685187 -0.00693182 0.00279095
-0.000757421 -0.00699997 0.00280761
-0.000832535 -0.00703425 0.00273609
-0.000910036 -0.00705511 0.00254641
-0.000983864 -0.00706986 0.00223142
-0.00104376 -0.00707774 0.00179343
-0.00107661 -0.00707273 0.00124304
-0.00106822 -0.00704425 0.000602765
-0.00100514 -0.00697858 -8.85277e-05
-0.000878436 -0.00686028 -0.00077148
-0.00068822 -0.00667531 -0.00136307
-0.000448992 -0.00641567 -0.00175075
-0.000195474 -0.00608672 -0.00177423
1.08858e-05 -0.00570948 -0.00119723
8.97395e-05 -0.00525447 0.000228472
4.48698e-05 -0.00395087 0.0019227
-0.000328195 -0.00556888 8.88178e-05
-0.000652775 -0.00789505 -0.00306709
-0.000872859 -0.00867323 -0.00472935
-0.00100438 -0.00905672 -0.00528866
-0.00108923 -0.00924737 -0.0053995
-0.00115772 -0.00933624 -0.00541557
-0.00122417 -0.00937752 -0.00548852
-0.00129056 -0.00939894 -0.00567376
-0.00135116 -0.00941087 -0.00598701
-0.00139485 -0.00941316 -0.00642959
-0.00140632 -0.00939917 -0.00699318
-0.00136811 -0.00935663 -0.00765545
-0.00126276 -0.00926844 -0.00837499
-0.00107721 -0.00911475 -0.00908567
-0.00080832 -0.008876 -0.00969026
-0.000470584 -0.00853907 -0.0100451
-0.00010586 -0.00810597 -0.00991627
0.000202032 -0.0075965 -0.00887658
0.000317019 -0.00695133 -0.00619026
0.00015851 -0.00511208 -0.00134552
-0.000514718 -0.00669483 -0.00472815
-0.00100019 -0.00975128 -0.0121789
-0.00130799 -0.0107918 -0.0155155
-0.00147451 -0.0112916 -0.0166795
-0.00156596 -0.0115349 -0.0169891
-0.0016278 -0.0116456 -0.0170588
-0.0016819 -0.0116943 -0.0171365
-0.00173331 -0.0117164 -0.0173112
-0.00177689 -0.0117259 -0.01761
-0.00180084 -0.0117236 -0.0180384
-0.00178781 -0.0117024 -0.0185908
-0.00171673 -0.0116486 -0.0192461
-0.00156549 -0.0115421 -0.0199612
-0.00131541 -0.0113579 -0.0206636
-0.000958525 -0.01107 -0.0212412
-0.000507427 -0.0106576 -0.0215152
-1.07069e-05 -0.0101167 -0.02116
0.000421931 -0.00946087 -0.0195024
0.000584912 -0.0085911 -0.0151581
0.000292456 -0.00615292 -0.00607863
-0.000722403 -0.00744886 -0.0112032
-0.00138571 -0.0112226 -0.024179
-0.00178818 -0.0125357 -0.029663
-0.0019906 -0.0131511 -0.0316139
-0.00208697 -0.0134442 -0.0321914
-0.00213947 -0.0135749 -0.0323392
-0.00217824 -0.0136304 -0.0324268
-0.00221202 -0.0136536 -0.0325856
-0.00223662 -0.0136617 -0.0328577
-0.00223972 -0.0136572 -0.0332531
-0.00220228 -0.0136331 -0.0337685
-0.00209976 -0.0135746 -0.0343851
-0.00190472 -0.0134594 -0.0350591
-0.00159171 -0.0132578 -0.0357128
-0.00114531 -0.0129359 -0.0362192
-0.000573806 -0.0124632 -0.0363591
6.9844e-05 -0.0118247 -0.0356973
0.000647156 -0.0110218 -0.0332536
0.000871845 -0.00990444 -0.0268278
0.000435923 -0.00685571 -0.0123753
-0.000931205 -0.00754326 -0.01924
-0.0017719 -0.011915 -0.03888
-0.00226597 -0.0134782 -0.0469586
-0.00250061 -0.0141909 -0.0498718
-0.00259894 -0.014522 -0.050784
-0.00264012 -0.0146664 -0.0510343
-0.00266223 -0.0147263 -0.0511384
-0.00267781 -0.0147507 -0.0512782
-0.00268418 -0.0147593 -0.051513
-0.00266897 -0.0147562 -0.0518591
-0.00261199 -0.0147355 -0.0523153
-0.00248578 -0.0146827 -0.0528646
-0.00225767 -0.0145743 -0.0534641
-0.00189403 -0.014377 -0.0540325
-0.00136984 -0.0140494 -0.0544282
-0.000684562 -0.013549 -0.0543879
0.000107827 -0.012845 -0.0533455
0.000841152 -0.0119162 -0.0499557
0.00114127 -0.0105507 -0.0410431
0.000570636 -0.00695659 -0.0201523
-0.00110997 -0.00667651 -0.0284672
-0.00210043 -0.0113914 -0.0556081
-0.00266711 -0.0131366 -0.0666168
-0.00292342 -0.0139053 -0.0706236
-0.00301905 -0.0142508 -0.0719193
-0.00304792 -0.0143975 -0.0722897
-0.00305453 -0.0144573 -0.0724165
-0.00305445 -0.0144821 -0.0725371
-0.00304677 -0.0144929 -0.0727291
-0.00302002 -0.0144953 -0.0730155
-0.00295389 -0.0144853 -0.0733979
-0.00281932 -0.0144505 -0.0738614
-0.00257916 -0.0143687 -0.074365
-0.00219173 -0.0142053 -0.0748265
-0.00161964 -0.0139136 -0.0750912
-0.000849134 -0.0134385 -0.0748478
7.2e-05 -0.0127284 -0.0733822
0.000955541 -0.011727 -0.0689301
0.00134191 -0.0101495 -0.0572174
0.000670953 -0.00617747 -0.0290785
-0.0012157 -0.0045969 -0.0381913
-0.00229041 -0.00924595 -0.0730984
-0.00288949 -0.0110479 -0.0871358
-0.00314803 -0.0118042 -0.0922683
-0.00323422 -0.0121281 -0.0939556
-0.00325083 -0.0122607 -0.0944478
-0.00324569 -0.0123136 -0.0945987
-0.00323586 -0.0123369 -0.0947025
-0.00322204 -0.0123507 -0.094853
-0.00319463 -0.0123617 -0.0950791
-0.00313484 -0.0123687 -0.0953858
-0.00301425 -0.0123635 -0.0957612
-0.00279352 -0.0123282 -0.0961692
-0.00242443 -0.0122316 -0.0965297
-0.00185677 -0.0120258 -0.0966788
-0.00105852 -0.0116468 -0.0962567
-6.16236e-05 -0.0110194 -0.0943898
0.000937768 -0.0100402 -0.0888619
0.00141215 -0.00834005 -0.0742385
0.000706075 -0.00428212 -0.0385337
-0.00119479 -0.00119631 -0.0474033
-0.002241 -0.00521732 -0.0894428
-0.00280657 -0.00688742 -0.10619
-0.00303797 -0.00753654 -0.112295
-0.0031062 -0.00779285 -0.114307
-0.00311203 -0.00789133 -0.114895
-0.00310127 -0.00792939 -0.115063
-0.00309032 -0.00794805 -0.115153
-0.0030811 -0.00796407 -0.11527
-0.0030665 -0.00798453 -0.115447
-0.00303151 -0.00801155 -0.115691
-0.00295107 -0.00804268 -0.115997
-0.00278819 -0.0080679 -0.116336
-0.00249205 -0.00806475 -0.116637
-0.00200259 -0.00799262 -0.116734
-0.00126722 -0.00778672 -0.116228
-0.000291073 -0.0073535 -0.114091
0.000746269 -0.00653424 -0.107667
0.00129027 -0.00487059 -0.0903997
0.000645136 -0.00115503 -0.0476089
-0.000984581 0.00337507 -0.0547774
-0.00183856 0.000662272 -0.101963
-0.00228018 -0.000630882 -0.120397
-0.0024471 -0.0010623 -0.126997
-0.00248824 -0.0012033 -0.129135
-0.0024867 -0.00124869 -0.129748
-0.00247873 -0.00126439 -0.129914
-0.00247722 -0.00127482 -0.129991
-0.0024845 -0.00129051 -0.130087
-0.00249658 -0.00131775 -0.130234
-0.0025038 -0.0013621 -0.130444
-0.00248827 -0.00142749 -0.130716
-0.00242037 -0.00151429 -0.131037
-0.00225502 -0.00161441 -0.131352
-0.00192996 -0.00170382 -0.131509
-0.00137702 -0.00173196 -0.131096
-0.000566296 -0.00160263 -0.128983
0.000371869 -0.0011102 -0.122176
0.000929154 0.000282198 -0.103204
0.000464577 0.00309861 -0.0550767
-0.000525483 0.00857799 -0.0584483
-0.000980658 0.00789651 -0.106413
-0.00119382 0.00725673 -0.124279
-0.00125793 0.0071463 -0.130363
-0.00126526 0.00715611 -0.132228
-0.00126244 0.00717531 -0.132727
-0.00126785 0.00718638 -0.132851
-0.00128778 0.00718733 -0.132914
-0.0013236 0.007176 -0.133003
-0.00137462 0.00714773 -0.133144
-0.00143726 0.00709499 -0.133351
-0.00150354 0.00700793 -0.133632
-0.00155713 0.00687583 -0.133991
-0.00156799 0.00668983 -0.134402
-0.00148669 0.00644928 -0.134755
-0.00124484 0.00617373 -0.13468
-0.000782631 0.00593335 -0.133087
-0.000148579 0.00594421 -0.126949
0.000307461 0.00676889 -0.108447
0.00015373 0.00803446 -0.0591092
0.000234138 0.013338 -0.0544712
0.00039067 0.0152805 -0.0941242
0.000491044 0.0155252 -0.107194
0.000546983 0.0157875 -0.111091
0.00056429 0.0159516 -0.112094
0.000550571 0.0160322 -0.112292
0.000511937 0.016069 -0.112323
0.000451371 0.016083 -0.112363
0.000369501 0.0160804 -0.112452
0.000265084 0.016059 -0.112602
0.000135838 0.0160106 -0.112823
-2.03732e-05 0.0159227 -0.113134
-0.00020361 0.015777 -0.113555
-0.000407367 0.0155511 -0.114098
-0.000612165 0.0152189 -0.114724
-0.000777726 0.0147585 -0.115207
-0.000843894 0.0141831 -0.114758
-0.000769574 0.0136503 -0.110986
-0.000610414 0.0136219 -0.0971737
-0.000305207 0.0126997 -0.0556443
0.00128328 0.015906 -0.0301942
0.00218866 0.0205522 -0.0422737
0.00260956 0.0216972 -0.0440134
0.00274527 0.0222671 -0.0438319
0.00273732 0.0225386 -0.0434794
0.00265822 0.0226587 -0.0432573
0.00254083 0.0227134 -0.0431695
0.00239874 0.0227394 -0.04318
0.00223564 0.0227481 -0.0432635
0.00205015 0.0227397 -0.0434136
0.00183691 0.0227076 -0.0436369
0.0015862 0.0226393 -0.0439524
0.00128417 0.0225163 -0.044392
0.000912002 0.0223107 -0.0449989
0.000447819 0.0219825 -0.0458187
-0.000127347 0.0214775 -0.046854
-0.000811385 0.0207433 -0.0479381
-0.00152651 0.0198124 -0.0483935
-0.00192149 0.0188465 -0.0459186
-0.000960747 0.015393 -0.0317401
0.00235178 0.0139429 0.0604708
0.00386406 0.0197003 0.111832
0.00442137 0.0211254 0.12724
0.00447601 0.0217184 0.131771
0.00431472 0.0219806 0.133204
0.00406946 0.022095 0.133686
0.00379477 0.0221494 0.133836
0.0035115 0.0221786 0.133848
0.00322567 0.022194 0.133785
0.00293613 0.0221969 0.133664
0.00263634 0.0221833 0.133485
0.00231411 0.0221449 0.133235
0.00194835 0.0220682 0.132886
0.00150435 0.0219317 0.132391
0.000925856 0.0217012 0.13166
0.000126841 0.0213238 0.13051
-0.00100004 0.0207282 0.128441
-0.00245716 0.0198609 0.123621
-0.00354076 0.0185522 0.108712
-0.00177038 0.0136338 0.058955
0.00208302 0.00697144 0.389402
0.00332752 0.00985017 0.529283
0.00358372 0.0105627 0.553879
0.00337295 0.0108592 0.558689
0.00301516 0.0109903 0.559828
0.00264188 0.0110475 0.560149
0.00229686 0.0110747 0.560238
0.00198977 0.0110893 0.560244
0.00171817 0.011097 0.560208
0.00147539 0.0110985 0.56014
0.00125245 0.0110917 0.560043
0.00103761 0.0110725 0.559911
0.000813034 0.0110341 0.559735
0.00054897 0.0109659 0.559491
0.000193299 0.0108506 0.559124
-0.000346575 0.0106619 0.558484
-0.00121159 0.0103641 0.557036
-0.00246345 0.00993046 0.552094
-0.0033986 0.00927611 0.527711
-0.0016993 0.00681691 0.38828
6.14775e-05 5.77377e-05 0.0029438
0.000122545 9.63107e-05 0.00474241
0.000146815 0.000112048 0.00529868
0.000142332 0.00011711 0.00549854
0.000118836 0.000117672 0.00557904
8.27065e-05 0.000115945 0.00560243
3.82167e-05 0.000112461 0.00558605
-1.11643e-05 0.000107389 0.00553583
-6.21046e-05 0.000100891 0.00545469
-0.000111224 9.32636e-05 0.00534551
-0.000155182 8.5042e-05 0.0052127
-0.000190951 7.70138e-05 0.00506309
-0.000216287 7.00806e-05 0.00490682
-0.000230479 6.52053e-05 0.0047566
-0.000234872 6.31576e-05 0.0046263
-0.000232358 6.41816e-05 0.00452746
-0.000226429 6.73762e-05 0.00445945
-0.000217173 7.13743e-05 0.00437371
-0.000194674 7.46025e-05 0.00404022
-9.73368e-05 7.59425e-05 0.00259614
0.000102012 5.68031e-05 0.00507253
0.000187772 0.000107156 0.00863942
0.000224598 0.000128753 0.00980264
0.000224753 0.00013489 0.0102106
0.00019936 0.000134634 0.0103617
0.000155127 0.000130782 0.0103967
9.66438e-05 0.000123496 0.0103543
2.79145e-05 0.000112565 0.0102468
-4.68165e-05 9.81927e-05 0.0100804
-0.000122779 8.11775e-05 0.00986092
-0.00019481 6.27834e-05 0.00959721
-0.000257851 4.48482e-05 0.00930249
-0.000307569 2.97149e-05 0.00899582
-0.000341537 1.98814e-05 0.00870125
-0.000360229 1.74482e-05 0.00844543
-0.000367261 2.32937e-05 0.00825089
-0.000367566 3.61193e-05 0.00811351
-0.000362296 5.15554e-05 0.00792638
-0.000329759 6.48835e-05 0.00722292
-0.000164879 7.06363e-05 0.00441765
0.00011766 -0.000118069 0.00614794
0.00020961 -0.000105493 0.0103522
0.000246545 -9.6278e-05 0.0117231
0.000244357 -9.7712e-05 0.0122097
0.000214883 -0.00010222 0.0123941
0.000164516 -0.000109052 0.0124383
9.75329e-05 -0.00011995 0.0123853
1.80425e-05 -0.000136017 0.0122481
-6.91827e-05 -0.000157266 0.0120333
-0.000158622 -0.000182664 0.0117475
-0.000243968 -0.000210085 0.0114014
-0.000318644 -0.000236471 0.0110112
-0.000376726 -0.000257723 0.0106009
-0.00041443 -0.000269433 0.0102021
-0.000431547 -0.000267609 0.00985173
-0.00043215 -0.000250217 0.00958396
-0.000424155 -0.000219131 0.00940501
-0.000411481 -0.000181451 0.00920338
-0.000371446 -0.00014667 0.00844929
-0.000185723 -0.000105964 0.00527806
0.000112739 -0.000532265 0.00679163
0.000195268 -0.000631974 0.0110214
0.000224088 -0.000658665 0.0123448
0.000216004 -0.000678878 0.0128245
0.000181281 -0.000692459 0.0130197
0.00012473 -0.000703722 0.0130725
5.00037e-05 -0.000717799 0.0130159
-3.88415e-05 -0.000737809 0.0128593
-0.000136637 -0.000764211 0.0126082
-0.00023688 -0.000795823 0.0122692
-0.000331962 -0.000829726 0.0118531
-0.000413463 -0.000861456 0.0113781
-0.000473576 -0.000885105 0.010872
-0.000506703 -0.000893721 0.0103738
-0.000511621 -0.000881015 0.00993101
-0.000493168 -0.000843234 0.00959393
-0.000462413 -0.000782629 0.0093922
-0.000429417 -0.000709547 0.00925026
-0.00037775 -0.000637169 0.00867859
-0.000188875 -0.000505797 0.00571761
8.55335e-05 -0.00123112 0.00695459
0.00014059 -0.0015449 0.0106676
0.000151825 -0.00163742 0.0117232
0.000134257 -0.00169026 0.0121203
9.37883e-05 -0.00171907 0.0123052
3.22208e-05 -0.00173677 0.0123636
-4.84893e-05 -0.00175396 0.0123066
-0.000144442 -0.00177632 0.0121358
-0.000250197 -0.00180557 0.0118543
-0.000358278 -0.00184045 0.0114676
-0.000459554 -0.00187735 0.0109866
-0.000543649 -0.00191034 0.0104304
-0.000600157 -0.00193132 0.00983067
-0.000621265 -0.00193064 0.00923345
-0.000604137 -0.00189884 0.00869895
-0.000554338 -0.00183018 0.00829752
-0.000486911 -0.00172664 0.00809463
-0.000420652 -0.00160212 0.0080856
-0.000352788 -0.00147045 0.00790901
-0.000176394 -0.00116835 0.00568543
3.22256e-05 -0.00223632 0.0063858
3.84036e-05 -0.00289156 0.00890918
2.06214e-05 -0.00308709 0.00943801
-1.07872e-05 -0.00318897 0.0096613
-5.74688e-05 -0.00324055 0.00980692
-0.00012259 -0.00326732 0.0098642
-0.000206485 -0.00328762 0.00980812
-0.000306232 -0.00331098 0.00962798
-0.000416154 -0.00334061 0.00932249
-0.000527894 -0.00337554 0.0088956
-0.000630691 -0.00341148 0.00835711
-0.000711834 -0.00344104 0.00772698
-0.000758044 -0.00345373 0.00704034
-0.000758364 -0.00343668 0.00635079
-0.000708134 -0.00337686 0.00573232
-0.000612982 -0.00326527 0.00527982
-0.000492899 -0.00310359 0.00510795
-0.00037867 -0.00290865 0.00532032
-0.000289845 -0.00268977 0.00578652
-0.000144923 -0.0021137 0.00494757
-5.15528e-05 -0.00353412 0.00476328
-0.000119469 -0.00467732 0.00521722
-0.000179584 -0.00501944 0.00488854
-0.000230071 -0.00518904 0.00481919
-0.000283493 -0.00527171 0.00488498
-0.000350295 -0.0053109 0.0049298
-0.000434229 -0.00533467 0.00487511
-0.000533658 -0.00535773 0.00469219
-0.000643052 -0.00538534 0.00437374
-0.000753227 -0.00541697 0.0039207
-0.000851761 -0.00544789 0.00334123
-0.000923383 -0.00546925 0.00265534
-0.000951408 -0.00546795 0.00190073
-0.000921125 -0.00542748 0.00113819
-0.000824816 -0.00533041 0.000456151
-0.000668357 -0.00516394 -2.14609e-05
-0.000476968 -0.004928 -0.000116484
-0.000297578 -0.00464197 0.000427492
-0.000181881 -0.00430151 0.0018376
-9.09404e-05 -0.00332972 0.00320655
-0.000169496 -0.00505843 0.00175834
-0.000339384 -0.00684072 -0.000935121
-0.00045659 -0.00737606 -0.00252274
-0.000531644 -0.00763202 -0.00303289
-0.000592502 -0.00775413 -0.00310024
-0.000658747 -0.00780886 -0.00308473
-0.000738949 -0.00783681 -0.0031392
-0.00083333 -0.00785861 -0.00331766
-0.000936663 -0.00788215 -0.00363585
-0.00103923 -0.00790763 -0.00409678
-0.001127 -0.00793 -0.00469489
-0.00118187 -0.00793917 -0.00541107
-0.00118332 -0.00791942 -0.00620588
-0.00111214 -0.00785018 -0.00701197
-0.000956793 -0.00770892 -0.00772581
-0.000722039 -0.00747741 -0.00818999
-0.000439466 -0.00715272 -0.00814616
-0.000175516 -0.00675446 -0.00713374
-2.5392e-05 -0.00625347 -0.00441729
-1.2696e-05 -0.0047566 0.000159072
-0.000321144 -0.00667346 -0.00291349
-0.000620748 -0.009229 -0.00999622
-0.000809133 -0.0100015 -0.01331
-0.000913909 -0.0103596 -0.0144376
-0.000982262 -0.0105275 -0.014704
-0.00104567 -0.0106004 -0.0147403
-0.00111832 -0.0106332 -0.0147982
-0.00120289 -0.0106533 -0.0149658
-0.00129481 -0.0106714 -0.0152701
-0.00138403 -0.0106891 -0.0157186
-0.00145513 -0.010701 -0.016309
-0.00148711 -0.010696 -0.0170241
-0.00145513 -0.0106562 -0.0178235
-0.00133457 -0.0105566 -0.0186342
-0.00110853 -0.0103688 -0.0193372
-0.000779672 -0.0100677 -0.0197371
-0.000385564 -0.00964504 -0.0194766
-1.61434e-05 -0.00911673 -0.0178325
0.000177082 -0.00841448 -0.0133911