# vtk DataFile Version 2.0 
Visualization 
ASCII 
DATASET STRUCTURED_GRID 
DIMENSIONS 21 21 11
POINTS 4851 float
-0.1 -0.1 0.9
0 -0.1 0.9
0.1 -0.1 0.9
0.2 -0.1 0.9
0.3 -0.1 0.9
0.4 -0.1 0.9
0.5 -0.1 0.9
0.6 -0.1 0.9
0.7 -0.1 0.9
0.8 -0.1 0.9
0.9 -0.1 0.9
1 -0.1 0.9
1.1 -0.1 0.9
1.2 -0.1 0.9
1.3 -0.1 0.9
1.4 -0.1 0.9
1.5 -0.1 0.9
1.6 -0.1 0.9
1.7 -0.1 0.9
1.8 -0.1 0.9
1.9 -0.1 0.9
-0.1 0 0.9
0 0 0.9
0.1 0 0.9
0.2 0 0.9
0.3 0 0.9
0.4 0 0.9
0.5 0 0.9
0.6 0 0.9
0.7 0 0.9
0.8 0 0.9
0.9 0 0.9
1 0 0.9
1.1 0 0.9
1.2 0 0.9
1.3 0 0.9
1.4 0 0.9
1.5 0 0.9
1.6 0 0.9
1.7 0 0.9
1.8 0 0.9
1.9 0 0.9
-0.1 0.1 0.9
0 0.1 0.9
0.1 0.1 0.9
0.2 0.1 0.9
0.3 0.1 0.9
0.4 0.1 0.9
0.5 0.1 0.9
0.6 0.1 0.9
0.7 0.1 0.9
0.8 0.1 0.9
0.9 0.1 0.9
1 0.1 0.9
1.1 0.1 0.9
1.2 0.1 0.9
1.3 0.1 0.9
1.4 0.1 0.9
1.5 0.1 0.9
1.6 0.1 0.9
1.7 0.1 0.9
1.8 0.1 0.9
1.9 0.1 0.9
-0.1 0.2 0.9
0 0.2 0.9
0.1 0.2 0.9
0.2 0.2 0.9
0.3 0.2 0.9
0.4 0.2 0.9
0.5 0.2 0.9
0.6 0.2 0.9
0.7 0.2 0.9
0.8 0.2 0.9
0.9 0.2 0.9
1 0.2 0.9
1.1 0.2 0.9
1.2 0.2 0.9
1.3 0.2 0.9
1.4 0.2 0.9
1.5 0.2 0.9
1.6 0.2 0.9
1.7 0.2 0.9
1.8 0.2 0.9
1.9 0.2 0.9
-0.1 0.3 0.9
0 0.3 0.9
0.1 0.3 0.9
0.2 0.3 0.9
0.3 0.3 0.9
0.4 0.3 0.9
0.5 0.3 0.9
0.6 0.3 0.9
0.7 0.3 0.9
0.8 0.3 0.9
0.9 0.3 0.9
1 0.3 0.9
1.1 0.3 0.9
1.2 0.3 0.9
1.3 0.3 0.9
1.4 0.3 0.9
1.5 0.3 0.9
1.6 0.3 0.9
1.7 0.3 0.9
1.8 0.3 0.9
1.9 0.3 0.9
-0.1 0.4 0.9
0 0.4 0.9
0.1 0.4 0.9
0.2 0.4 0.9
0.3 0.4 0.9
0.4 0.4 0.9
0.5 0.4 0.9
0.6 0.4 0.9
0.7 0.4 0.9
0.8 0.4 0.9
0.9 0.4 0.9
1 0.4 0.9
1.1 0.4 0.9
1.2 0.4 0.9
1.3 0.4 0.9
1.4 0.4 0.9
1.5 0.4 0.9
1.6 0.4 0.9
1.7 0.4 0.9
1.8 0.4 0.9
1.9 0.4 0.9
-0.1 0.5 0.9
0 0.5 0.9
0.1 0.5 0.9
0.2 0.5 0.9
0.3 0.5 0.9
0.4 0.5 0.9
0.5 0.5 0.9
0.6 0.5 0.9
0.7 0.5 0.9
0.8 0.5 0.9
0.9 0.5 0.9
1 0.5 0.9
1.1 0.5 0.9
1.2 0.5 0.9
1.3 0.5 0.9
1.4 0.5 0.9
1.5 0.5 0.9
1.6 0.5 0.9
1.7 0.5 0.9
1.8 0.5 0.9
1.9 0.5 0.9
-0.1 0.6 0.9
0 0.6 0.9
0.1 0.6 0.9
0.2 0.6 0.9
0.3 0.6 0.9
0.4 0.6 0.9
0.5 0.6 0.9
0.6 0.6 0.9
0.7 0.6 0.9
0.8 0.6 0.9
0.9 0.6 0.9
1 0.6 0.9
1.1 0.6 0.9
1.2 0.6 0.9
1.3 0.6 0.9
1.4 0.6 0.9
1.5 0.6 0.9
1.6 0.6 0.9
1.7 0.6 0.9
1.8 0.6 0.9
1.9 0.6 0.9
-0.1 0.7 0.9
0 0.7 0.9
0.1 0.7 0.9
0.2 0.7 0.9
0.3 0.7 0.9
0.4 0.7 0.9
0.5 0.7 0.9
0.6 0.7 0.9
0.7 0.7 0.9
0.8 0.7 0.9
0.9 0.7 0.9
1 0.7 0.9
1.1 0.7 0.9
1.2 0.7 0.9
1.3 0.7 0.9
1.4 0.7 0.9
1.5 0.7 0.9
1.6 0.7 0.9
1.7 0.7 0.9
1.8 0.7 0.9
1.9 0.7 0.9
-0.1 0.8 0.9
0 0.8 0.9
0.1 0.8 0.9
0.2 0.8 0.9
0.3 0.8 0.9
0.4 0.8 0.9
0.5 0.8 0.9
0.6 0.8 0.9
0.7 0.8 0.9
0.8 0.8 0.9
0.9 0.8 0.9
1 0.8 0.9
1.1 0.8 0.9
1.2 0.8 0.9
1.3 0.8 0.9
1.4 0.8 0.9
1.5 0.8 0.9
1.6 0.8 0.9
1.7 0.8 0.9
1.8 0.8 0.9
1.9 0.8 0.9
-0.1 0.9 0.9
0 0.9 0.9
0.1 0.9 0.9
0.2 0.9 0.9
0.3 0.9 0.9
0.4 0.9 0.9
0.5 0.9 0.9
0.6 0.9 0.9
0.7 0.9 0.9
0.8 0.9 0.9
0.9 0.9 0.9
1 0.9 0.9
1.1 0.9 0.9
1.2 0.9 0.9
1.3 0.9 0.9
1.4 0.9 0.9
1.5 0.9 0.9
1.6 0.9 0.9
1.7 0.9 0.9
1.8 0.9 0.9
1.9 0.9 0.9
-0.1 1 0.9
0 1 0.9
0.1 1 0.9
0.2 1 0.9
0.3 1 0.9
0.4 1 0.9
0.5 1 0.9
0.6 1 0.9
0.7 1 0.9
0.8 1 0.9
0.9 1 0.9
1 1 0.9
1.1 1 0.9
1.2 1 0.9
1.3 1 0.9
1.4 1 0.9
1.5 1 0.9
1.6 1 0.9
1.7 1 0.9
1.8 1 0.9
1.9 1 0.9
-0.1 1.1 0.9
0 1.1 0.9
0.1 1.1 0.9
0.2 1.1 0.9
0.3 1.1 0.9
0.4 1.1 0.9
0.5 1.1 0.9
0.6 1.1 0.9
0.7 1.1 0.9
0.8 1.1 0.9
0.9 1.1 0.9
1 1.1 0.9
1.1 1.1 0.9
1.2 1.1 0.9
1.3 1.1 0.9
1.4 1.1 0.9
1.5 1.1 0.9
1.6 1.1 0.9
1.7 1.1 0.9
1.8 1.1 0.9
1.9 1.1 0.9
-0.1 1.2 0.9
0 1.2 0.9
0.1 1.2 0.9
0.2 1.2 0.9
0.3 1.2 0.9
0.4 1.2 0.9
0.5 1.2 0.9
0.6 1.2 0.9
0.7 1.2 0.9
0.8 1.2 0.9
0.9 1.2 0.9
1 1.2 0.9
1.1 1.2 0.9
1.2 1.2 0.9
1.3 1.2 0.9
1.4 1.2 0.9
1.5 1.2 0.9
1.6 1.2 0.9
1.7 1.2 0.9
1.8 1.2 0.9
1.9 1.2 0.9
-0.1 1.3 0.9
0 1.3 0.9
0.1 1.3 0.9
0.2 1.3 0.9
0.3 1.3 0.9
0.4 1.3 0.9
0.5 1.3 0.9
0.6 1.3 0.9
0.7 1.3 0.9
0.8 1.3 0.9
0.9 1.3 0.9
1 1.3 0.9
1.1 1.3 0.9
1.2 1.3 0.9
1.3 1.3 0.9
1.4 1.3 0.9
1.5 1.3 0.9
1.6 1.3 0.9
1.7 1.3 0.9
1.8 1.3 0.9
1.9 1.3 0.9
-0.1 1.4 0.9
0 1.4 0.9
0.1 1.4 0.9
0.2 1.4 0.9
0.3 1.4 0.9
0.4 1.4 0.9
0.5 1.4 0.9
0.6 1.4 0.9
0.7 1.4 0.9
0.8 1.4 0.9
0.9 1.4 0.9
1 1.4 0.9
1.1 1.4 0.9
1.2 1.4 0.9
1.3 1.4 0.9
1.4 1.4 0.9
1.5 1.4 0.9
1.6 1.4 0.9
1.7 1.4 0.9
1.8 1.4 0.9
1.9 1.4 0.9
-0.1 1.5 0.9
0 1.5 0.9
0.1 1.5 0.9
0.2 1.5 0.9
0.3 1.5 0.9
0.4 1.5 0.9
0.5 1.5 0.9
0.6 1.5 0.9
0.7 1.5 0.9
0.8 1.5 0.9
0.9 1.5 0.9
1 1.5 0.9
1.1 1.5 0.9
1.2 1.5 0.9
1.3 1.5 0.9
1.4 1.5 0.9
1.5 1.5 0.9
1.6 1.5 0.9
1.7 1.5 0.9
1.8 1.5 0.9
1.9 1.5 0.9
-0.1 1.6 0.9
0 1.6 0.9
0.1 1.6 0.9
0.2 1.6 0.9
0.3 1.6 0.9
0.4 1.6 0.9
0.5 1.6 0.9
0.6 1.6 0.9
0.7 1.6 0.9
0.8 1.6 0.9
0.9 1.6 0.9
1 1.6 0.9
1.1 1.6 0.9
1.2 1.6 0.9
1.3 1.6 0.9
1.4 1.6 0.9
1.5 1.6 0.9
1.6 1.6 0.9
1.7 1.6 0.9
1.8 1.6 0.9
1.9 1.6 0.9
-0.1 1.7 0.9
0 1.7 0.9
0.1 1.7 0.9
0.2 1.7 0.9
0.3 1.7 0.9
0.4 1.7 0.9
0.5 1.7 0.9
0.6 1.7 0.9
0.7 1.7 0.9
0.8 1.7 0.9
0.9 1.7 0.9
1 1.7 0.9
1.1 1.7 0.9
1.2 1.7 0.9
1.3 1.7 0.9
1.4 1.7 0.9
1.5 1.7 0.9
1.6 1.7 0.9
1.7 1.7 0.9
1.8 1.7 0.9
1.9 1.7 0.9
-0.1 1.8 0.9
0 1.8 0.9
0.1 1.8 0.9
0.2 1.8 0.9
0.3 1.8 0.9
0.4 1.8 0.9
0.5 1.8 0.9
0.6 1.8 0.9
0.7 1.8 0.9
0.8 1.8 0.9
0.9 1.8 0.9
1 1.8 0.9
1.1 1.8 0.9
1.2 1.8 0.9
1.3 1.8 0.9
1.4 1.8 0.9
1.5 1.8 0.9
1.6 1.8 0.9
1.7 1.8 0.9
1.8 1.8 0.9
1.9 1.8 0.9
-0.1 1.9 0.9
0 1.9 0.9
0.1 1.9 0.9
0.2 1.9 0.9
0.3 1.9 0.9
0.4 1.9 0.9
0.5 1.9 0.9
0.6 1.9 0.9
0.7 1.9 0.9
0.8 1.9 0.9
0.9 1.9 0.9
1 1.9 0.9
1.1 1.9 0.9
1.2 1.9 0.9
1.3 1.9 0.9
1.4 1.9 0.9
1.5 1.9 0.9
1.6 1.9 0.9
1.7 1.9 0.9
1.8 1.9 0.9
1.9 1.9 0.9
-0.1 -0.1 1
0 -0.1 1
0.1 -0.1 1
0.2 -0.1 1
0.3 -0.1 1
0.4 -0.1 1
0.5 -0.1 1
0.6 -0.1 1
0.7 -0.1 1
0.8 -0.1 1
0.9 -0.1 1
1 -0.1 1
1.1 -0.1 1
1.2 -0.1 1
1.3 -0.1 1
1.4 -0.1 1
1.5 -0.1 1
1.6 -0.1 1
1.7 -0.1 1
1.8 -0.1 1
1.9 -0.1 1
-0.1 0 1
0 0 1
0.1 0 1
0.2 0 1
0.3 0 1
0.4 0 1
0.5 0 1
0.6 0 1
0.7 0 1
0.8 0 1
0.9 0 1
1 0 1
1.1 0 1
1.2 0 1
1.3 0 1
1.4 0 1
1.5 0 1
1.6 0 1
1.7 0 1
1.8 0 1
1.9 0 1
-0.1 0.1 1
0 0.1 1
0.1 0.1 1
0.2 0.1 1
0.3 0.1 1
0.4 0.1 1
0.5 0.1 1
0.6 0.1 1
0.7 0.1 1
0.8 0.1 1
0.9 0.1 1
1 0.1 1
1.1 0.1 1
1.2 0.1 1
1.3 0.1 1
1.4 0.1 1
1.5 0.1 1
1.6 0.1 1
1.7 0.1 1
1.8 0.1 1
1.9 0.1 1
-0.1 0.2 1
0 0.2 1
0.1 0.2 1
0.2 0.2 1
0.3 0.2 1
0.4 0.2 1
0.5 0.2 1
0.6 0.2 1
0.7 0.2 1
0.8 0.2 1
0.9 0.2 1
1 0.2 1
1.1 0.2 1
1.2 0.2 1
1.3 0.2 1
1.4 0.2 1
1.5 0.2 1
1.6 0.2 1
1.7 0.2 1
1.8 0.2 1
1.9 0.2 1
-0.1 0.3 1
0 0.3 1
0.1 0.3 1
0.2 0.3 1
0.3 0.3 1
0.4 0.3 1
0.5 0.3 1
0.6 0.3 1
0.7 0.3 1
0.8 0.3 1
0.9 0.3 1
1 0.3 1
1.1 0.3 1
1.2 0.3 1
1.3 0.3 1
1.4 0.3 1
1.5 0.3 1
1.6 0.3 1
1.7 0.3 1
1.8 0.3 1
1.9 0.3 1
-0.1 0.4 1
0 0.4 1
0.1 0.4 1
0.2 0.4 1
0.3 0.4 1
0.4 0.4 1
0.5 0.4 1
0.6 0.4 1
0.7 0.4 1
0.8 0.4 1
0.9 0.4 1
1 0.4 1
1.1 0.4 1
1.2 0.4 1
1.3 0.4 1
1.4 0.4 1
1.5 0.4 1
1.6 0.4 1
1.7 0.4 1
1.8 0.4 1
1.9 0.4 1
-0.1 0.5 1
0 0.5 1
0.1 0.5 1
0.2 0.5 1
0.3 0.5 1
0.4 0.5 1
0.5 0.5 1
0.6 0.5 1
0.7 0.5 1
0.8 0.5 1
0.9 0.5 1
1 0.5 1
1.1 0.5 1
1.2 0.5 1
1.3 0.5 1
1.4 0.5 1
1.5 0.5 1
1.6 0.5 1
1.7 0.5 1
1.8 0.5 1
1.9 0.5 1
-0.1 0.6 1
0 0.6 1
0.1 0.6 1
0.2 0.6 1
0.3 0.6 1
0.4 0.6 1
0.5 0.6 1
0.6 0.6 1
0.7 0.6 1
0.8 0.6 1
0.9 0.6 1
1 0.6 1
1.1 0.6 1
1.2 0.6 1
1.3 0.6 1
1.4 0.6 1
1.5 0.6 1
1.6 0.6 1
1.7 0.6 1
1.8 0.6 1
1.9 0.6 1
-0.1 0.7 1
0 0.7 1
0.1 0.7 1
0.2 0.7 1
0.3 0.7 1
0.4 0.7 1
0.5 0.7 1
0.6 0.7 1
0.7 0.7 1
0.8 0.7 1
0.9 0.7 1
1 0.7 1
1.1 0.7 1
1.2 0.7 1
1.3 0.7 1
1.4 0.7 1
1.5 0.7 1
1.6 0.7 1
1.7 0.7 1
1.8 0.7 1
1.9 0.7 1
-0.1 0.8 1
0 0.8 1
0.1 0.8 1
0.2 0.8 1
0.3 0.8 1
0.4 0.8 1
0.5 0.8 1
0.6 0.8 1
0.7 0.8 1
0.8 0.8 1
0.9 0.8 1
1 0.8 1
1.1 0.8 1
1.2 0.8 1
1.3 0.8 1
1.4 0.8 1
1.5 0.8 1
1.6 0.8 1
1.7 0.8 1
1.8 0.8 1
1.9 0.8 1
-0.1 0.9 1
0 0.9 1
0.1 0.9 1
0.2 0.9 1
0.3 0.9 1
0.4 0.9 1
0.5 0.9 1
0.6 0.9 1
0.7 0.9 1
0.8 0.9 1
0.9 0.9 1
1 0.9 1
1.1 0.9 1
1.2 0.9 1
1.3 0.9 1
1.4 0.9 1
1.5 0.9 1
1.6 0.9 1
1.7 0.9 1
1.8 0.9 1
1.9 0.9 1
-0.1 1 1
0 1 1
0.1 1 1
0.2 1 1
0.3 1 1
0.4 1 1
0.5 1 1
0.6 1 1
0.7 1 1
0.8 1 1
0.9 1 1
1 1 1
1.1 1 1
1.2 1 1
1.3 1 1
1.4 1 1
1.5 1 1
1.6 1 1
1.7 1 1
1.8 1 1
1.9 1 1
-0.1 1.1 1
0 1.1 1
0.1 1.1 1
0.2 1.1 1
0.3 1.1 1
0.4 1.1 1
0.5 1.1 1
0.6 1.1 1
0.7 1.1 1
0.8 1.1 1
0.9 1.1 1
1 1.1 1
1.1 1.1 1
1.2 1.1 1
1.3 1.1 1
1.4 1.1 1
1.5 1.1 1
1.6 1.1 1
1.7 1.1 1
1.8 1.1 1
1.9 1.1 1
-0.1 1.2 1
0 1.2 1
0.1 1.2 1
0.2 1.2 1
0.3 1.2 1
0.4 1.2 1
0.5 1.2 1
0.6 1.2 1
0.7 1.2 1
0.8 1.2 1
0.9 1.2 1
1 1.2 1
1.1 1.2 1
1.2 1.2 1
1.3 1.2 1
1.4 1.2 1
1.5 1.2 1
1.6 1.2 1
1.7 1.2 1
1.8 1.2 1
1.9 1.2 1
-0.1 1.3 1
0 1.3 1
0.1 1.3 1
0.2 1.3 1
0.3 1.3 1
0.4 1.3 1
0.5 1.3 1
0.6 1.3 1
0.7 1.3 1
0.8 1.3 1
0.9 1.3 1
1 1.3 1
1.1 1.3 1
1.2 1.3 1
1.3 1.3 1
1.4 1.3 1
1.5 1.3 1
1.6 1.3 1
1.7 1.3 1
1.8 1.3 1
1.9 1.3 1
-0.1 1.4 1
0 1.4 1
0.1 1.4 1
0.2 1.4 1
0.3 1.4 1
0.4 1.4 1
0.5 1.4 1
0.6 1.4 1
0.7 1.4 1
0.8 1.4 1
0.9 1.4 1
1 1.4 1
1.1 1.4 1
1.2 1.4 1
1.3 1.4 1
1.4 1.4 1
1.5 1.4 1
1.6 1.4 1
1.7 1.4 1
1.8 1.4 1
1.9 1.4 1
-0.1 1.5 1
0 1.5 1
0.1 1.5 1
0.2 1.5 1
0.3 1.5 1
0.4 1.5 1
0.5 1.5 1
0.6 1.5 1
0.7 1.5 1
0.8 1.5 1
0.9 1.5 1
1 1.5 1
1.1 1.5 1
1.2 1.5 1
1.3 1.5 1
1.4 1.5 1
1.5 1.5 1
1.6 1.5 1
1.7 1.5 1
1.8 1.5 1
1.9 1.5 1
-0.1 1.6 1
0 1.6 1
0.1 1.6 1
0.2 1.6 1
0.3 1.6 1
0.4 1.6 1
0.5 1.6 1
0.6 1.6 1
0.7 1.6 1
0.8 1.6 1
0.9 1.6 1
1 1.6 1
1.1 1.6 1
1.2 1.6 1
1.3 1.6 1
1.4 1.6 1
1.5 1.6 1
1.6 1.6 1
1.7 1.6 1
1.8 1.6 1
1.9 1.6 1
-0.1 1.7 1
0 1.7 1
0.1 1.7 1
0.2 1.7 1
0.3 1.7 1
0.4 1.7 1
0.5 1.7 1
0.6 1.7 1
0.7 1.7 1
0.8 1.7 1
0.9 1.7 1
1 1.7 1
1.1 1.7 1
1.2 1.7 1
1.3 1.7 1
1.4 1.7 1
1.5 1.7 1
1.6 1.7 1
1.7 1.7 1
1.8 1.7 1
1.9 1.7 1
-0.1 1.8 1
0 1.8 1
0.1 1.8 1
0.2 1.8 1
0.3 1.8 1
0.4 1.8 1
0.5 1.8 1
0.6 1.8 1
0.7 1.8 1
0.8 1.8 1
0.9 1.8 1
1 1.8 1
1.1 1.8 1
1.2 1.8 1
1.3 1.8 1
1.4 1.8 1
1.5 1.8 1
1.6 1.8 1
1.7 1.8 1
1.8 1.8 1
1.9 1.8 1
-0.1 1.9 1
0 1.9 1
0.1 1.9 1
0.2 1.9 1
0.3 1.9 1
0.4 1.9 1
0.5 1.9 1
0.6 1.9 1
0.7 1.9 1
0.8 1.9 1
0.9 1.9 1
1 1.9 1
1.1 1.9 1
1.2 1.9 1
1.3 1.9 1
1.4 1.9 1
1.5 1.9 1
1.6 1.9 1
1.7 1.9 1
1.8 1.9 1
1.9 1.9 1
-0.1 -0.1 1.1
0 -0.1 1.1
0.1 -0.1 1.1
0.2 -0.1 1.1
0.3 -0.1 1.1
0.4 -0.1 1.1
0.5 -0.1 1.1
0.6 -0.1 1.1
0.7 -0.1 1.1
0.8 -0.1 1.1
0.9 -0.1 1.1
1 -0.1 1.1
1.1 -0.1 1.1
1.2 -0.1 1.1
1.3 -0.1 1.1
1.4 -0.1 1.1
1.5 -0.1 1.1
1.6 -0.1 1.1
1.7 -0.1 1.1
1.8 -0.1 1.1
1.9 -0.1 1.1
-0.1 0 1.1
0 0 1.1
0.1 0 1.1
0.2 0 1.1
0.3 0 1.1
0.4 0 1.1
0.5 0 1.1
0.6 0 1.1
0.7 0 1.1
0.8 0 1.1
0.9 0 1.1
1 0 1.1
1.1 0 1.1
1.2 0 1.1
1.3 0 1.1
1.4 0 1.1
1.5 0 1.1
[...]
CELL_DATA 4000
VECTORS velocity double 
3.13742e-05 -0.000127423 0.0038111
4.56218e-05 -0.000139826 0.00530895
3.73779e-05 -0.000147751 0.00563569
1.96385e-05 -0.000155229 0.00572243
-2.1654e-06 -0.000159713 0.00575245
-2.63666e-05 -0.000162206 0.00575247
-5.17212e-05 -0.000163961 0.00572546
-7.67098e-05 -0.000165649 0.00567368
-9.94182e-05 -0.000167398 0.0055997
-0.000117877 -0.000169053 0.00550642
-0.000130268 -0.000170268 0.00539734
-0.000135086 -0.000170506 0.00527743
-0.000131741 -0.000169245 0.00515348
-0.000121122 -0.00016594 0.00503403
-0.000105923 -0.000160085 0.0049293
-9.11977e-05 -0.000151369 0.00485075
-8.43947e-05 -0.000140259 0.00480912
-9.2662e-05 -0.000128084 0.00479041
-0.000112501 -0.000117862 0.0046214
-5.62505e-05 -9.66212e-05 0.00340352
4.24774e-05 -0.000424105 0.00535601
5.10173e-05 -0.000515791 0.00776227
3.29026e-05 -0.000551982 0.00823512
5.13711e-06 -0.000575405 0.00832801
-2.70651e-05 -0.000587937 0.0083562
-6.26546e-05 -0.000594183 0.0083509
-0.000100531 -0.000597927 0.00830635
-0.000138794 -0.000601093 0.00822177
-0.00017483 -0.000604167 0.00810009
-0.000205709 -0.000606796 0.00794575
-0.000228428 -0.000608074 0.00776446
-0.000240367 -0.000606764 0.00756429
-0.000239865 -0.000601497 0.00735623
-0.000226974 -0.000590876 0.00715464
-0.000204147 -0.000573566 0.00697765
-0.000177515 -0.000548926 0.00684889
-0.000157134 -0.000517583 0.00679762
-0.000155802 -0.000482661 0.00681836
-0.0001706 -0.000448368 0.00662692
-8.52999e-05 -0.000367893 0.0047451
2.06855e-05 -0.000895452 0.00562151
5.97371e-06 -0.00113459 0.00788096
-2.76146e-05 -0.00121874 0.00821424
-6.3925e-05 -0.00126605 0.00824668
-0.000100898 -0.00128988 0.00826032
-0.000139751 -0.00130095 0.00825375
-0.000180489 -0.00130675 0.00820559
-0.000221445 -0.00131095 0.00811001
-0.000259725 -0.00131449 0.00796911
-0.000291766 -0.00131684 0.00778743
-0.000313792 -0.00131659 0.00757141
-0.000322345 -0.00131171 0.00733032
-0.000314934 -0.00129972 0.00707715
-0.000290791 -0.00127815 0.00682956
-0.000252128 -0.00124474 0.00661093
-0.000205405 -0.0011982 0.00645473
-0.000162771 -0.00113939 0.0064115
-0.000141674 -0.00107298 0.00651625
-0.000147829 -0.00100199 0.00653088
-7.39144e-05 -0.000812443 0.00491797
-2.12844e-05 -0.00153404 0.00538253
-7.33099e-05 -0.00199499 0.00701218
-0.000128455 -0.00214816 0.00706197
-0.000174606 -0.00222792 0.00700334
-0.000215133 -0.00226673 0.00699919
-0.000254721 -0.00228403 0.00699386
-0.000295001 -0.0022922 0.00694661
-0.000334712 -0.00229715 0.00684608
-0.000370765 -0.00230056 0.00669326
-0.000399062 -0.00230176 0.00649252
-0.000414999 -0.00229874 0.0062505
-0.000414065 -0.00228854 0.00597711
-0.000392854 -0.00226741 0.00568703
-0.000349769 -0.00223147 0.00540088
-0.000286646 -0.00217731 0.00514704
-0.000210562 -0.0021028 0.00496857
-0.00013607 -0.00200889 0.00493959
-8.69951e-05 -0.00190166 0.00515449
-8.38389e-05 -0.00177906 0.00550282
-4.19195e-05 -0.0014195 0.00460818
-8.06111e-05 -0.00233055 0.00464383
-0.000183432 -0.00309519 0.00523503
-0.000266601 -0.00334165 0.00487233
-0.000324448 -0.00346365 0.00468933
-0.000368013 -0.0035218 0.00466046
-0.000406674 -0.00354723 0.00465594
-0.000444226 -0.00355847 0.00461105
-0.000480095 -0.00356425 0.00450789
-0.000511022 -0.00356729 0.00434594
-0.000532317 -0.00356689 0.00412924
-0.000538416 -0.00356032 0.00386446
-0.000523558 -0.00354351 0.00356211
-0.000483074 -0.00351124 0.00323864
-0.000414454 -0.00345781 0.00291775
-0.000318962 -0.00337809 0.00263283
-0.00020434 -0.00326897 0.00243749
-8.82402e-05 -0.00313131 0.0024325
-3.00976e-06 -0.0029723 0.00278962
1.08026e-05 -0.00277866 0.00359305
5.4013e-06 -0.00217877 0.0038123
-0.000158794 -0.00325905 0.00322345
-0.000327551 -0.00441329 0.00227471
-0.000446199 -0.00478011 0.00133806
-0.000518077 -0.00495496 0.000982706
-0.000564366 -0.00503715 0.00091554
-0.000600497 -0.00507276 0.000908492
-0.000633067 -0.00508795 0.000866311
-0.000662542 -0.00509496 0.000762747
-0.000685608 -0.00509775 0.000595103
-0.000696852 -0.0050957 0.000366707
-0.000689615 -0.00508526 8.39946e-05
-0.000656633 -0.00506106 -0.000242015
-0.000591543 -0.00501621 -0.000593214
-0.000490433 -0.00494271 -0.000942632
-0.000354017 -0.00483329 -0.00125128
-0.000190606 -0.00468309 -0.00145406
-2.17682e-05 -0.00449279 -0.0014176
0.000110097 -0.00426932 -0.000871966
0.000137528 -0.00398181 0.000538855
6.87639e-05 -0.00306683 0.00235409
-0.000258007 -0.00426324 0.000901998
-0.00050918 -0.00588776 -0.00221279
-0.0006713 -0.00640266 -0.00392966
-0.000759679 -0.00664085 -0.00452298
-0.000808278 -0.0067514 -0.00464897
-0.000840132 -0.00679912 -0.00466443
-0.000865428 -0.00681927 -0.00470456
-0.000885971 -0.00682818 -0.00480666
-0.000898516 -0.00683123 -0.00497631
-0.000896822 -0.00682798 -0.00521128
-0.000872968 -0.00681419 -0.00550553
-0.000817992 -0.00678292 -0.00584753
-0.000723255 -0.00672522 -0.00621774
-0.000582979 -0.00663059 -0.00658601
-0.000396675 -0.00648885 -0.00690715
-0.000173436 -0.00629265 -0.00710241
6.13243e-05 -0.00604116 -0.00699911
0.000252133 -0.00574008 -0.00620135
0.000297243 -0.0053335 -0.00398988
0.000148621 -0.0040306 2.29569e-05
-0.000378326 -0.00524515 -0.00253218
-0.000728564 -0.00740251 -0.00856548
-0.000942107 -0.00809052 -0.0113138
-0.00104927 -0.00840065 -0.0122273
-0.0010997 -0.00854271 -0.0124389
-0.00112564 -0.00860381 -0.0124714
-0.00114155 -0.00862973 -0.0125113
-0.00115083 -0.00864139 -0.0126104
-0.00115053 -0.00864566 -0.0127777
-0.00113361 -0.0086423 -0.0130127
-0.00109063 -0.00862659 -0.01331
-0.00101058 -0.00859013 -0.0136576
-0.000882252 -0.00852153 -0.0140346
-0.000697186 -0.00840746 -0.0144077
-0.000452937 -0.00823392 -0.014725
-0.000158444 -0.00798975 -0.0148923
0.000156198 -0.00767134 -0.0146888
0.000419858 -0.00728076 -0.0135608
0.000488561 -0.00672894 -0.0103161
0.00024428 -0.0049772 -0.00338616
-0.000516756 -0.00605786 -0.0072491
-0.000980314 -0.00877484 -0.0170515
-0.00125171 -0.00965306 -0.0211185
-0.00137924 -0.0100394 -0.0224479
-0.00143082 -0.0102135 -0.0227772
-0.00144937 -0.0102881 -0.0228374
-0.00145427 -0.0103201 -0.0228798
-0.00145066 -0.0103352 -0.0229744
-0.001436 -0.010342 -0.0231351
-0.00140272 -0.0103405 -0.0233627
-0.00133978 -0.0103256 -0.0236527
-0.00123371 -0.0102878 -0.0239935
-0.00107045 -0.0102135 -0.0243625
-0.000837773 -0.0100859 -0.0247231
-0.000529984 -0.0098863 -0.0250165
-0.000154943 -0.00959804 -0.025131
0.000252893 -0.00921248 -0.0247877
0.000604303 -0.00872422 -0.0232386
0.000704464 -0.00800373 -0.0186958
0.000352232 -0.00576807 -0.00803851
-0.0006656 -0.00650435 -0.0133246
-0.00125047 -0.00975001 -0.0277853
-0.00158249 -0.0108207 -0.0334768
-0.0017304 -0.0112799 -0.0353252
-0.00178229 -0.0114826 -0.0358068
-0.00179243 -0.0115688 -0.0359067
-0.00178552 -0.0116063 -0.0359549
-0.00176864 -0.0116252 -0.036044
-0.00173971 -0.0116359 -0.0361942
-0.00169092 -0.0116388 -0.0364075
-0.00160983 -0.0116289 -0.0366801
-0.00148063 -0.011596 -0.0370009
-0.00128551 -0.0115249 -0.0373462
-0.00100757 -0.0113951 -0.0376761
-0.000636147 -0.0111823 -0.037925
-0.000176209 -0.0108629 -0.0379604
0.000334999 -0.0104191 -0.0374355
0.000787833 -0.00983358 -0.0353671
0.000928796 -0.00892912 -0.0292437
0.000464398 -0.00621652 -0.0140102
-0.000810756 -0.00634679 -0.0206767
-0.0015133 -0.0100082 -0.0406255
-0.00190236 -0.0112501 -0.048234
-0.00206802 -0.0117671 -0.0507006
-0.00211899 -0.0119888 -0.0513669
-0.00212047 -0.0120817 -0.0515175
-0.00210221 -0.012123 -0.0515752
-0.0020734 -0.0121457 -0.0516582
-0.00203258 -0.0121614 -0.0517947
-0.00197199 -0.0121717 -0.0519883
-0.00187839 -0.0121718 -0.0522354
-0.00173383 -0.012152 -0.0525255
-0.00151649 -0.0120964 -0.0528343
-0.00120365 -0.0119816 -0.0531195
-0.000777946 -0.011778 -0.053308
-0.000237735 -0.0114522 -0.0532448
0.000378755 -0.0109741 -0.0525018
0.000941846 -0.0103064 -0.0498201
0.00113448 -0.00921793 -0.041841
0.000567238 -0.00609717 -0.0212297
-0.000930224 -0.00533365 -0.0290028
-0.00172852 -0.00919205 -0.0550714
-0.00216064 -0.0105504 -0.0648285
-0.00233714 -0.0110943 -0.06799
-0.0023853 -0.0113174 -0.0688631
-0.00237914 -0.0114084 -0.0690707
-0.00235194 -0.01145 -0.0691402
-0.00231473 -0.0114756 -0.0692177
-0.00226712 -0.0114971 -0.0693387
-0.00220183 -0.0115171 -0.0695095
-0.00210571 -0.0115323 -0.0697274
-0.0019594 -0.0115346 -0.0699817
-0.00173753 -0.011509 -0.0702489
-0.00141136 -0.0114316 -0.0704856
-0.000954026 -0.0112683 -0.0706119
-0.000354036 -0.010976 -0.070447
0.000354972 -0.0105072 -0.069469
0.00102699 -0.00979495 -0.0661024
0.00128172 -0.00854841 -0.05604
0.000640858 -0.00516973 -0.029419
-0.000992863 -0.00325142 -0.0377421
-0.00183827 -0.00696402 -0.0701899
-0.00228503 -0.00833963 -0.0821981
-0.00245975 -0.00885974 -0.086083
-0.00250197 -0.00905878 -0.0871652
-0.0024903 -0.00913603 -0.0874269
-0.0024589 -0.00917255 -0.0875068
-0.00241952 -0.00919897 -0.0875794
-0.00237304 -0.00922593 -0.087686
-0.00231349 -0.0092566 -0.0878349
-0.00222893 -0.00929023 -0.0880249
-0.00210018 -0.00932192 -0.0882469
-0.00190006 -0.0093402 -0.0884798
-0.00159437 -0.00932399 -0.0886811
-0.00114581 -0.00923822 -0.0887665
-0.000528654 -0.00903231 -0.0885274
0.00023639 -0.008639 -0.0873355
0.000996673 -0.00795119 -0.083264
0.00131971 -0.00661304 -0.0709964
0.000659856 -0.00322583 -0.0380577
-0.000957054 -5.08071e-06 -0.0460797
-0.00176543 -0.00309961 -0.0845787
-0.00217993 -0.00434005 -0.0987094
-0.00233359 -0.00476414 -0.103256
-0.00236567 -0.00490611 -0.104515
-0.00235155 -0.00495599 -0.104816
-0.00232258 -0.00498154 -0.104899
-0.00228965 -0.00500564 -0.104966
-0.00225458 -0.005036 -0.105061
-0.0022135 -0.00507605 -0.105193
-0.00215717 -0.00512792 -0.105363
-0.00206893 -0.00519153 -0.105566
-0.0019231 -0.00526192 -0.105786
-0.0016827 -0.00532503 -0.105986
-0.0013019 -0.00535186 -0.106081
-0.000737573 -0.00529089 -0.105838
1.20918e-05 -0.00505867 -0.104514
0.000806992 -0.00450147 -0.0998158
0.00119242 -0.003196 -0.0854242
0.000596212 -0.000162734 -0.0463839
-0.000770125 0.00427806 -0.0529194
-0.00141411 0.00238738 -0.0961579
-0.00172872 0.00148721 -0.11184
-0.0018355 0.00124662 -0.11681
-0.0018528 0.00119701 -0.118154
-0.00184064 0.00118764 -0.118458
-0.00182238 0.00117848 -0.118534
-0.00180615 0.00116026 -0.118593
-0.00179396 0.00113017 -0.11868
-0.00178462 0.00108495 -0.118803
-0.00177304 0.0010196 -0.118968
-0.00174798 0.000928793 -0.119173
-0.00168922 0.000808952 -0.119414
-0.00156375 0.000662103 -0.119666
-0.00132288 0.000503406 -0.119852
-0.000909084 0.000372454 -0.119723
-0.000290273 0.000355431 -0.118436
0.000434463 0.000645558 -0.113373
0.000846856 0.00172322 -0.0973533
0.000423428 0.00392302 -0.0533502
-0.000374134 0.00911438 -0.0566002
-0.000684642 0.00906967 -0.101229
-0.000815743 0.00875204 -0.116881
-0.000846137 0.00878097 -0.121641
-0.000844383 0.00885086 -0.122847
-0.000840045 0.00889 -0.123085
-0.000842325 0.00890071 -0.123132
-0.000854119 0.00889187 -0.12318
-0.000876896 0.00886692 -0.123262
-0.000911917 0.00882343 -0.123385
-0.000958835 0.00875448 -0.123557
-0.00101396 0.00864997 -0.123785
-0.00106764 0.00849759 -0.124079
-0.00109853 0.00828524 -0.124433
-0.00106772 0.0080069 -0.124798
-0.000915894 0.00767519 -0.124938
-0.000584266 0.00735267 -0.123996
-0.000101286 0.00723835 -0.119238
0.000248354 0.00782281 -0.103102
0.000124177 0.00861087 -0.0573091
0.000289452 0.0135036 -0.0531661
0.000500278 0.0158493 -0.0909533
0.000628842 0.0163249 -0.102923
0.000692455 0.0166698 -0.10614
0.000707772 0.016862 -0.106787
0.000690576 0.016947 -0.106841
0.000651176 0.0169773 -0.106831
0.000594195 0.0169804 -0.10686
0.000520024 0.0169657 -0.106938
0.000426235 0.016932 -0.107064
0.000309063 0.0168722 -0.107248
0.000164261 0.0167736 -0.107506
-1.16025e-05 0.016618 -0.10786
-0.000216596 0.0163821 -0.108335
-0.000436812 0.0160379 -0.108926
-0.000636861 0.015561 -0.109486
-0.000758146 0.0149609 -0.109352
-0.000750932 0.014378 -0.106268
-0.000639668 0.014197 -0.0936522
-0.000319834 0.0129803 -0.0542308
0.00121369 0.0157765 -0.029686
0.00207492 0.0205858 -0.0414472
0.0024793 0.0218666 -0.0431456
0.0026115 0.0224711 -0.0428919
0.00260459 0.0227461 -0.0424827
0.00252836 0.0228599 -0.0422384
0.00241528 0.0229047 -0.0421457
0.002279 0.02292 -0.0421499
0.00212373 0.0229185 -0.0422173
0.00194797 0.0229007 -0.0423388
0.00174638 0.0228604 -0.0425209
0.00150914 0.022786 -0.0427834
0.00122203 0.0226592 -0.0431593
0.000865636 0.0224529 -0.0436963
0.000417945 0.0221272 -0.0444516
-0.000138726 0.0216293 -0.045452
-0.000800563 0.0209074 -0.0465552
-0.0014893 0.0199813 -0.0470708
-0.00186536 0.0189467 -0.0446731
-0.000932678 0.0153854 -0.0310056
0.00212811 0.0137095 0.0602211
0.0035044 0.0194764 0.111018
0.00402832 0.020974 0.126023
0.00409961 0.0215779 0.130397
0.00396935 0.0218336 0.131773
0.00375443 0.0219384 0.132232
0.00350552 0.0219831 0.132375
0.00324408 0.0220034 0.132392
0.00297786 0.0220109 0.132345
0.00270717 0.0220066 0.132249
0.00242705 0.021987 0.132103
0.00212644 0.0219442 0.131891
0.00178585 0.0218653 0.131584
0.00137287 0.0217297 0.131131
0.000836202 0.0215043 0.13044
9.786e-05 0.0211383 0.129325
-0.000938738 0.0205634 0.127302
-0.00227422 0.0197197 0.122617
-0.00326744 0.0183935 0.108115
-0.00163372 0.0134808 0.0589137
0.00178053 0.00685477 0.388695
0.00284147 0.00973822 0.528104
0.00307732 0.010487 0.552384
0.0029272 0.010789 0.557076
0.00264828 0.0109168 0.558174
0.00234522 0.0109692 0.558479
0.00205575 0.0109916 0.558566
0.00179173 0.0110017 0.558576
0.00155399 0.0110054 0.558549
0.00133929 0.0110033 0.558495
0.00114127 0.0109935 0.558413
0.000950032 0.0109721 0.558298
0.000750067 0.0109327 0.558137
0.000514884 0.0108649 0.557903
0.000198689 0.0107522 0.557537
-0.000279674 0.0105692 0.55689
-0.00104204 0.0102817 0.555432
-0.00213842 0.00985984 0.550529
-0.00294737 0.00919675 0.526433
-0.00147369 0.00674038 0.387686
3.46769e-05 -4.40367e-05 0.0039504
6.3152e-05 -3.90805e-05 0.00554758
6.68656e-05 -3.92955e-05 0.0058961
5.57284e-05 -4.18826e-05 0.0059903
3.55835e-05 -4.37654e-05 0.00602566
9.25742e-06 -4.5132e-05 0.00603009
-2.12203e-05 -4.66695e-05 0.00600654
-5.38316e-05 -4.87133e-05 0.00595722
-8.64236e-05 -5.13341e-05 0.0058846
-0.000116706 -5.44211e-05 0.00579124
-0.000142248 -5.76316e-05 0.00568032
-0.000160769 -6.04668e-05 0.00555649
-0.000170557 -6.2405e-05 0.00542647
-0.000170967 -6.27686e-05 0.00529918
-0.000163153 -6.08804e-05 0.00518574
-0.000150852 -5.62793e-05 0.00509915
-0.000139798 -4.91008e-05 0.00505196
-0.000135696 -4.04287e-05 0.00503021
-0.000134538 -3.21646e-05 0.00484889
-6.72689e-05 -1.79472e-05 0.00355001
5.25685e-05 -0.000197985 0.00567092
8.40873e-05 -0.00023325 0.00826949
8.57156e-05 -0.000246904 0.00878301
7.05836e-05 -0.000257071 0.00888805
4.44058e-05 -0.000262525 0.00892423
9.47726e-06 -0.000265551 0.00892502
-3.22612e-05 -0.000268433 0.00888456
-7.85181e-05 -0.000272379 0.00880197
-0.000126555 -0.000277653 0.00868008
-0.000173137 -0.00028391 0.00852297
-0.000214653 -0.000290348 0.00833601
-0.00024756 -0.000295903 0.00812681
-0.00026868 -0.000299138 0.00790633
-0.000276029 -0.000298378 0.00768961
-0.00026992 -0.000291839 0.00749629
-0.000254281 -0.000278401 0.00735255
-0.00023663 -0.000258081 0.0072912
-0.000225917 -0.000233481 0.00730732
-0.000215593 -0.000208474 0.0070939
-0.000107797 -0.000160029 0.00505328
4.55012e-05 -0.000518449 0.00610045
6.62229e-05 -0.00064699 0.00859745
5.97617e-05 -0.000689096 0.00897632
3.96088e-05 -0.000712843 0.00902299
9.7975e-06 -0.000724075 0.00904684
-2.873e-05 -0.000729258 0.00904796
-7.47495e-05 -0.000733318 0.00900452
-0.00012604 -0.000738607 0.0089107
-0.000179545 -0.000745749 0.00876851
-0.000231477 -0.000754243 0.00858222
-0.000277593 -0.000762868 0.00835765
-0.000313396 -0.000769805 0.00810349
-0.00033467 -0.000772576 0.00783269
-0.000338288 -0.000768196 0.00756368
-0.000323977 -0.000753672 0.00732168
-0.000295583 -0.000726813 0.00714359
-0.000262408 -0.000687627 0.00708537
-0.000237134 -0.000640119 0.00718523
-0.000218455 -0.000589197 0.00718051
-0.000109228 -0.000468814 0.00537741
2.26504e-05 -0.00103554 0.00605849
2.17997e-05 -0.00132442 0.00796102
2.42993e-06 -0.00141299 0.0080577
-2.40237e-05 -0.00145763 0.00801574
-5.70216e-05 -0.00147773 0.00802478
-9.78874e-05 -0.00148612 0.00802924
-0.000146314 -0.00149136 0.00798768
-0.000200292 -0.00149756 0.0078889
-0.000256497 -0.00150577 0.00773392
-0.00031062 -0.00151544 0.00752677
-0.000357618 -0.00152491 0.00727323
-0.000391935 -0.00153152 0.00698247
-0.000408069 -0.00153154 0.00666899
-0.000401754 -0.00152047 0.00635427
-0.000371857 -0.0014938 0.00606881
-0.000322482 -0.00144804 0.00586011
-0.000264949 -0.001383 0.00580973
-0.000217722 -0.00130435 0.00601899
-0.000189609 -0.00121482 0.00635539
-9.48045e-05 -0.000967525 0.00525103
-1.5107e-05 -0.00177332 0.00554672
-4.89359e-05 -0.00230672 0.00644098
-8.66111e-05 -0.00246448 0.00612428
-0.000120994 -0.00253929 0.00596078
-0.000156886 -0.00257233 0.00594881
-0.000198869 -0.00258558 0.00595659
-0.000248103 -0.00259242 0.00591856
-0.000302843 -0.00259916 0.0058173
-0.000359585 -0.00260772 0.00565241
-0.000413514 -0.00261753 0.00542742
-0.000458636 -0.00262642 0.00514794
-0.000488092 -0.00263079 0.00482349
-0.000494886 -0.00262545 0.00447012
-0.000473305 -0.00260414 0.00411231
-0.000421152 -0.00256035 0.0037861
-0.000342723 -0.00248912 0.00355057
-0.000252245 -0.00238986 0.00351639
-0.000175507 -0.00226965 0.00386704
-0.00013608 -0.00212388 0.00466988
-6.80399e-05 -0.00167809 0.00466689
-7.03789e-05 -0.00274046 0.00436603
-0.000150951 -0.00361849 0.00373891
-0.000213704 -0.00387324 0.00284258
-0.000258184 -0.00398924 0.00250876
-0.000296809 -0.00404019 0.00246236
-0.000338571 -0.0040603 0.00247044
-0.000386585 -0.00406938 0.00243648
-0.000439787 -0.00407661 0.00233496
-0.000494553 -0.00408493 0.0021635
-0.000545466 -0.0040939 0.00192477
-0.000585497 -0.00410078 0.00162391
-0.000606227 -0.00410087 0.00127066
-0.000598888 -0.00408743 0.000882381
-0.000555885 -0.00405203 0.000486712
-0.000473766 -0.00398588 0.000125744
-0.000356973 -0.00388187 -0.000128507
-0.000223204 -0.00373893 -0.000129925
-0.00010736 -0.00356452 0.000409676
-5.39721e-05 -0.00334044 0.00183752
-2.69861e-05 -0.00260972 0.00343185
-0.000146408 -0.00391734 0.00226995
-0.000289931 -0.00524998 -0.000528611
-0.000385729 -0.00563329 -0.0022191
-0.00044293 -0.0058026 -0.00279082
-0.000484014 -0.0058767 -0.00289248
-0.000523973 -0.00590606 -0.00289002
-0.000568527 -0.00591829 -0.00292049
-0.000617503 -0.00592617 -0.00302024
-0.000667302 -0.00593391 -0.00319441
-0.000711869 -0.00594126 -0.00344145
-0.000743027 -0.00594497 -0.00375698
-0.00075071 -0.00593919 -0.00413118
-0.000723916 -0.00591538 -0.00454563
-0.000652799 -0.00586275 -0.00496965
-0.00053198 -0.00576942 -0.00535458
-0.00036609 -0.0056257 -0.00561333
-0.000176572 -0.00542898 -0.0055568
-1.03858e-05 -0.00518639 -0.00476296
6.0509e-05 -0.00485739 -0.00250829
3.02545e-05 -0.00374445 0.001309
-0.000245045 -0.00524179 -0.000992472
-0.000469334 -0.00713903 -0.0067512
-0.000606939 -0.00768435 -0.00949864
-0.00067963 -0.00791896 -0.0103939
-0.000723065 -0.00802123 -0.0105788
-0.000759581 -0.00806201 -0.0105909
-0.000798304 -0.00807843 -0.0106198
-0.000840234 -0.00808734 -0.010716
-0.000881922 -0.00809449 -0.0108883
-0.000916731 -0.00809992 -0.0111366
-0.000935273 -0.00809997 -0.0114576
-0.000925575 -0.00808768 -0.0118417
-0.000874142 -0.00805259 -0.0122695
-0.000768048 -0.00798109 -0.0127073
-0.000599581 -0.00785772 -0.0130995
-0.00037273 -0.00766894 -0.013342
-0.000113535 -0.00740968 -0.0131934
0.000116428 -0.00708435 -0.0120636
0.000209659 -0.00661975 -0.00873785
0.000104829 -0.00502414 -0.00194394
-0.000366281 -0.00659523 -0.00564239
-0.000689016 -0.00915094 -0.0152641
-0.000876795 -0.00988926 -0.0193719
-0.000967566 -0.0101988 -0.0206922
-0.00101299 -0.0103327 -0.0209944
-0.00104448 -0.0103865 -0.0210328
-0.00107508 -0.0104079 -0.0210631
-0.00110726 -0.0104184 -0.0211543
-0.00113791 -0.0104254 -0.0213199
-0.00115992 -0.0104293 -0.0215613
-0.00116273 -0.0104262 -0.0218764
-0.00113231 -0.0104084 -0.0222564
-0.0010522 -0.0103635 -0.0226809
-0.000905779 -0.0102746 -0.0231132