# vtk DataFile Version 2.0 
Visualization 
ASCII 
DATASET STRUCTURED_GRID 
DIMENSIONS 21 21 11
POINTS 4851 float
-0.1 -0.1 0.9
0 -0.1 0.9
0.1 -0.1 0.9
0.2 -0.1 0.9
0.3 -0.1 0.9
0.4 -0.1 0.9
0.5 -0.1 0.9
0.6 -0.1 0.9
0.7 -0.1 0.9
0.8 -0.1 0.9
0.9 -0.1 0.9
1 -0.1 0.9
1.1 -0.1 0.9
1.2 -0.1 0.9
1.3 -0.1 0.9
1.4 -0.1 0.9
1.5 -0.1 0.9
1.6 -0.1 0.9
1.7 -0.1 0.9
1.8 -0.1 0.9
1.9 -0.1 0.9
-0.1 0 0.9
0 0 0.9
0.1 0 0.9
0.2 0 0.9
0.3 0 0.9
0.4 0 0.9
0.5 0 0.9
0.6 0 0.9
0.7 0 0.9
0.8 0 0.9
0.9 0 0.9
1 0 0.9
1.1 0 0.9
1.2 0 0.9
1.3 0 0.9
1.4 0 0.9
1.5 0 0.9
1.6 0 0.9
1.7 0 0.9
1.8 0 0.9
1.9 0 0.9
-0.1 0.1 0.9
0 0.1 0.9
0.1 0.1 0.9
0.2 0.1 0.9
0.3 0.1 0.9
0.4 0.1 0.9
0.5 0.1 0.9
0.6 0.1 0.9
0.7 0.1 0.9
0.8 0.1 0.9
0.9 0.1 0.9
1 0.1 0.9
1.1 0.1 0.9
1.2 0.1 0.9
1.3 0.1 0.9
1.4 0.1 0.9
1.5 0.1 0.9
1.6 0.1 0.9
1.7 0.1 0.9
1.8 0.1 0.9
1.9 0.1 0.9
-0.1 0.2 0.9
0 0.2 0.9
0.1 0.2 0.9
0.2 0.2 0.9
0.3 0.2 0.9
0.4 0.2 0.9
0.5 0.2 0.9
0.6 0.2 0.9
0.7 0.2 0.9
0.8 0.2 0.9
0.9 0.2 0.9
1 0.2 0.9
1.1 0.2 0.9
1.2 0.2 0.9
1.3 0.2 0.9
1.4 0.2 0.9
1.5 0.2 0.9
1.6 0.2 0.9
1.7 0.2 0.9
1.8 0.2 0.9
1.9 0.2 0.9
-0.1 0.3 0.9
0 0.3 0.9
0.1 0.3 0.9
0.2 0.3 0.9
0.3 0.3 0.9
0.4 0.3 0.9
0.5 0.3 0.9
0.6 0.3 0.9
0.7 0.3 0.9
0.8 0.3 0.9
0.9 0.3 0.9
1 0.3 0.9
1.1 0.3 0.9
1.2 0.3 0.9
1.3 0.3 0.9
1.4 0.3 0.9
1.5 0.3 0.9
1.6 0.3 0.9
1.7 0.3 0.9
1.8 0.3 0.9
1.9 0.3 0.9
-0.1 0.4 0.9
0 0.4 0.9
0.1 0.4 0.9
0.2 0.4 0.9
0.3 0.4 0.9
0.4 0.4 0.9
0.5 0.4 0.9
0.6 0.4 0.9
0.7 0.4 0.9
0.8 0.4 0.9
0.9 0.4 0.9
1 0.4 0.9
1.1 0.4 0.9
1.2 0.4 0.9
1.3 0.4 0.9
1.4 0.4 0.9
1.5 0.4 0.9
1.6 0.4 0.9
1.7 0.4 0.9
1.8 0.4 0.9
1.9 0.4 0.9
-0.1 0.5 0.9
0 0.5 0.9
0.1 0.5 0.9
0.2 0.5 0.9
0.3 0.5 0.9
0.4 0.5 0.9
0.5 0.5 0.9
0.6 0.5 0.9
0.7 0.5 0.9
0.8 0.5 0.9
0.9 0.5 0.9
1 0.5 0.9
1.1 0.5 0.9
1.2 0.5 0.9
1.3 0.5 0.9
1.4 0.5 0.9
1.5 0.5 0.9
1.6 0.5 0.9
1.7 0.5 0.9
1.8 0.5 0.9
1.9 0.5 0.9
-0.1 0.6 0.9
0 0.6 0.9
0.1 0.6 0.9
0.2 0.6 0.9
0.3 0.6 0.9
0.4 0.6 0.9
0.5 0.6 0.9
0.6 0.6 0.9
0.7 0.6 0.9
0.8 0.6 0.9
0.9 0.6 0.9
1 0.6 0.9
1.1 0.6 0.9
1.2 0.6 0.9
1.3 0.6 0.9
1.4 0.6 0.9
1.5 0.6 0.9
1.6 0.6 0.9
1.7 0.6 0.9
1.8 0.6 0.9
1.9 0.6 0.9
-0.1 0.7 0.9
0 0.7 0.9
0.1 0.7 0.9
0.2 0.7 0.9
0.3 0.7 0.9
0.4 0.7 0.9
0.5 0.7 0.9
0.6 0.7 0.9
0.7 0.7 0.9
0.8 0.7 0.9
0.9 0.7 0.9
1 0.7 0.9
1.1 0.7 0.9
1.2 0.7 0.9
1.3 0.7 0.9
1.4 0.7 0.9
1.5 0.7 0.9
1.6 0.7 0.9
1.7 0.7 0.9
1.8 0.7 0.9
1.9 0.7 0.9
-0.1 0.8 0.9
0 0.8 0.9
0.1 0.8 0.9
0.2 0.8 0.9
0.3 0.8 0.9
0.4 0.8 0.9
0.5 0.8 0.9
0.6 0.8 0.9
0.7 0.8 0.9
0.8 0.8 0.9
0.9 0.8 0.9
1 0.8 0.9
1.1 0.8 0.9
1.2 0.8 0.9
1.3 0.8 0.9
1.4 0.8 0.9
1.5 0.8 0.9
1.6 0.8 0.9
1.7 0.8 0.9
1.8 0.8 0.9
1.9 0.8 0.9
-0.1 0.9 0.9
0 0.9 0.9
0.1 0.9 0.9
0.2 0.9 0.9
0.3 0.9 0.9
0.4 0.9 0.9
0.5 0.9 0.9
0.6 0.9 0.9
0.7 0.9 0.9
0.8 0.9 0.9
0.9 0.9 0.9
1 0.9 0.9
1.1 0.9 0.9
1.2 0.9 0.9
1.3 0.9 0.9
1.4 0.9 0.9
1.5 0.9 0.9
1.6 0.9 0.9
1.7 0.9 0.9
1.8 0.9 0.9
1.9 0.9 0.9
-0.1 1 0.9
0 1 0.9
0.1 1 0.9
0.2 1 0.9
0.3 1 0.9
0.4 1 0.9
0.5 1 0.9
0.6 1 0.9
0.7 1 0.9
0.8 1 0.9
0.9 1 0.9
1 1 0.9
1.1 1 0.9
1.2 1 0.9
1.3 1 0.9
1.4 1 0.9
1.5 1 0.9
1.6 1 0.9
1.7 1 0.9
1.8 1 0.9
1.9 1 0.9
-0.1 1.1 0.9
0 1.1 0.9
0.1 1.1 0.9
0.2 1.1 0.9
0.3 1.1 0.9
0.4 1.1 0.9
0.5 1.1 0.9
0.6 1.1 0.9
0.7 1.1 0.9
0.8 1.1 0.9
0.9 1.1 0.9
1 1.1 0.9
1.1 1.1 0.9
1.2 1.1 0.9
1.3 1.1 0.9
1.4 1.1 0.9
1.5 1.1 0.9
1.6 1.1 0.9
1.7 1.1 0.9
1.8 1.1 0.9
1.9 1.1 0.9
-0.1 1.2 0.9
0 1.2 0.9
0.1 1.2 0.9
0.2 1.2 0.9
0.3 1.2 0.9
0.4 1.2 0.9
0.5 1.2 0.9
0.6 1.2 0.9
0.7 1.2 0.9
0.8 1.2 0.9
0.9 1.2 0.9
1 1.2 0.9
1.1 1.2 0.9
1.2 1.2 0.9
1.3 1.2 0.9
1.4 1.2 0.9
1.5 1.2 0.9
1.6 1.2 0.9
1.7 1.2 0.9
1.8 1.2 0.9
1.9 1.2 0.9
-0.1 1.3 0.9
0 1.3 0.9
0.1 1.3 0.9
0.2 1.3 0.9
0.3 1.3 0.9
0.4 1.3 0.9
0.5 1.3 0.9
0.6 1.3 0.9
0.7 1.3 0.9
0.8 1.3 0.9
0.9 1.3 0.9
1 1.3 0.9
1.1 1.3 0.9
1.2 1.3 0.9
1.3 1.3 0.9
1.4 1.3 0.9
1.5 1.3 0.9
1.6 1.3 0.9
1.7 1.3 0.9
1.8 1.3 0.9
1.9 1.3 0.9
-0.1 1.4 0.9
0 1.4 0.9
0.1 1.4 0.9
0.2 1.4 0.9
0.3 1.4 0.9
0.4 1.4 0.9
0.5 1.4 0.9
0.6 1.4 0.9
0.7 1.4 0.9
0.8 1.4 0.9
0.9 1.4 0.9
1 1.4 0.9
1.1 1.4 0.9
1.2 1.4 0.9
1.3 1.4 0.9
1.4 1.4 0.9
1.5 1.4 0.9
1.6 1.4 0.9
1.7 1.4 0.9
1.8 1.4 0.9
1.9 1.4 0.9
-0.1 1.5 0.9
0 1.5 0.9
0.1 1.5 0.9
0.2 1.5 0.9
0.3 1.5 0.9
0.4 1.5 0.9
0.5 1.5 0.9
0.6 1.5 0.9
0.7 1.5 0.9
0.8 1.5 0.9
0.9 1.5 0.9
1 1.5 0.9
1.1 1.5 0.9
1.2 1.5 0.9
1.3 1.5 0.9
1.4 1.5 0.9
1.5 1.5 0.9
1.6 1.5 0.9
1.7 1.5 0.9
1.8 1.5 0.9
1.9 1.5 0.9
-0.1 1.6 0.9
0 1.6 0.9
0.1 1.6 0.9
0.2 1.6 0.9
0.3 1.6 0.9
0.4 1.6 0.9
0.5 1.6 0.9
0.6 1.6 0.9
0.7 1.6 0.9
0.8 1.6 0.9
0.9 1.6 0.9
1 1.6 0.9
1.1 1.6 0.9
1.2 1.6 0.9
1.3 1.6 0.9
1.4 1.6 0.9
1.5 1.6 0.9
1.6 1.6 0.9
1.7 1.6 0.9
1.8 1.6 0.9
1.9 1.6 0.9
-0.1 1.7 0.9
0 1.7 0.9
0.1 1.7 0.9
0.2 1.7 0.9
0.3 1.7 0.9
0.4 1.7 0.9
0.5 1.7 0.9
0.6 1.7 0.9
0.7 1.7 0.9
0.8 1.7 0.9
0.9 1.7 0.9
1 1.7 0.9
1.1 1.7 0.9
1.2 1.7 0.9
1.3 1.7 0.9
1.4 1.7 0.9
1.5 1.7 0.9
1.6 1.7 0.9
1.7 1.7 0.9
1.8 1.7 0.9
1.9 1.7 0.9
-0.1 1.8 0.9
0 1.8 0.9
0.1 1.8 0.9
0.2 1.8 0.9
0.3 1.8 0.9
0.4 1.8 0.9
0.5 1.8 0.9
0.6 1.8 0.9
0.7 1.8 0.9
0.8 1.8 0.9
0.9 1.8 0.9
1 1.8 0.9
1.1 1.8 0.9
1.2 1.8 0.9
1.3 1.8 0.9
1.4 1.8 0.9
1.5 1.8 0.9
1.6 1.8 0.9
1.7 1.8 0.9
1.8 1.8 0.9
1.9 1.8 0.9
-0.1 1.9 0.9
0 1.9 0.9
0.1 1.9 0.9
0.2 1.9 0.9
0.3 1.9 0.9
0.4 1.9 0.9
0.5 1.9 0.9
0.6 1.9 0.9
0.7 1.9 0.9
0.8 1.9 0.9
0.9 1.9 0.9
1 1.9 0.9
1.1 1.9 0.9
1.2 1.9 0.9
1.3 1.9 0.9
1.4 1.9 0.9
1.5 1.9 0.9
1.6 1.9 0.9
1.7 1.9 0.9
1.8 1.9 0.9
1.9 1.9 0.9
-0.1 -0.1 1
0 -0.1 1
0.1 -0.1 1
0.2 -0.1 1
0.3 -0.1 1
0.4 -0.1 1
0.5 -0.1 1
0.6 -0.1 1
0.7 -0.1 1
0.8 -0.1 1
0.9 -0.1 1
1 -0.1 1
1.1 -0.1 1
1.2 -0.1 1
1.3 -0.1 1
1.4 -0.1 1
1.5 -0.1 1
1.6 -0.1 1
1.7 -0.1 1
1.8 -0.1 1
1.9 -0.1 1
-0.1 0 1
0 0 1
0.1 0 1
0.2 0 1
0.3 0 1
0.4 0 1
0.5 0 1
0.6 0 1
0.7 0 1
0.8 0 1
0.9 0 1
1 0 1
1.1 0 1
1.2 0 1
1.3 0 1
1.4 0 1
1.5 0 1
1.6 0 1
1.7 0 1
1.8 0 1
1.9 0 1
-0.1 0.1 1
0 0.1 1
0.1 0.1 1
0.2 0.1 1
0.3 0.1 1
0.4 0.1 1
0.5 0.1 1
0.6 0.1 1
0.7 0.1 1
0.8 0.1 1
0.9 0.1 1
1 0.1 1
1.1 0.1 1
1.2 0.1 1
1.3 0.1 1
1.4 0.1 1
1.5 0.1 1
1.6 0.1 1
1.7 0.1 1
1.8 0.1 1
1.9 0.1 1
-0.1 0.2 1
0 0.2 1
0.1 0.2 1
0.2 0.2 1
0.3 0.2 1
0.4 0.2 1
0.5 0.2 1
0.6 0.2 1
0.7 0.2 1
0.8 0.2 1
0.9 0.2 1
1 0.2 1
1.1 0.2 1
1.2 0.2 1
1.3 0.2 1
1.4 0.2 1
1.5 0.2 1
1.6 0.2 1
1.7 0.2 1
1.8 0.2 1
1.9 0.2 1
-0.1 0.3 1
0 0.3 1
0.1 0.3 1
0.2 0.3 1
0.3 0.3 1
0.4 0.3 1
0.5 0.3 1
0.6 0.3 1
0.7 0.3 1
0.8 0.3 1
0.9 0.3 1
1 0.3 1
1.1 0.3 1
1.2 0.3 1
1.3 0.3 1
1.4 0.3 1
1.5 0.3 1
1.6 0.3 1
1.7 0.3 1
1.8 0.3 1
1.9 0.3 1
-0.1 0.4 1
0 0.4 1
0.1 0.4 1
0.2 0.4 1
0.3 0.4 1
0.4 0.4 1
0.5 0.4 1
0.6 0.4 1
0.7 0.4 1
0.8 0.4 1
0.9 0.4 1
1 0.4 1
1.1 0.4 1
1.2 0.4 1
1.3 0.4 1
1.4 0.4 1
1.5 0.4 1
1.6 0.4 1
1.7 0.4 1
1.8 0.4 1
1.9 0.4 1
-0.1 0.5 1
0 0.5 1
0.1 0.5 1
0.2 0.5 1
0.3 0.5 1
0.4 0.5 1
0.5 0.5 1
0.6 0.5 1
0.7 0.5 1
0.8 0.5 1
0.9 0.5 1
1 0.5 1
1.1 0.5 1
1.2 0.5 1
1.3 0.5 1
1.4 0.5 1
1.5 0.5 1
1.6 0.5 1
1.7 0.5 1
1.8 0.5 1
1.9 0.5 1
-0.1 0.6 1
0 0.6 1
0.1 0.6 1
0.2 0.6 1
0.3 0.6 1
0.4 0.6 1
0.5 0.6 1
0.6 0.6 1
0.7 0.6 1
0.8 0.6 1
0.9 0.6 1
1 0.6 1
1.1 0.6 1
1.2 0.6 1
1.3 0.6 1
1.4 0.6 1
1.5 0.6 1
1.6 0.6 1
1.7 0.6 1
1.8 0.6 1
1.9 0.6 1
-0.1 0.7 1
0 0.7 1
0.1 0.7 1
0.2 0.7 1
0.3 0.7 1
0.4 0.7 1
0.5 0.7 1
0.6 0.7 1
0.7 0.7 1
0.8 0.7 1
0.9 0.7 1
1 0.7 1
1.1 0.7 1
1.2 0.7 1
1.3 0.7 1
1.4 0.7 1
1.5 0.7 1
1.6 0.7 1
1.7 0.7 1
1.8 0.7 1
1.9 0.7 1
-0.1 0.8 1
0 0.8 1
0.1 0.8 1
0.2 0.8 1
0.3 0.8 1
0.4 0.8 1
0.5 0.8 1
0.6 0.8 1
0.7 0.8 1
0.8 0.8 1
0.9 0.8 1
1 0.8 1
1.1 0.8 1
1.2 0.8 1
1.3 0.8 1
1.4 0.8 1
1.5 0.8 1
1.6 0.8 1
1.7 0.8 1
1.8 0.8 1
1.9 0.8 1
-0.1 0.9 1
0 0.9 1
0.1 0.9 1
0.2 0.9 1
0.3 0.9 1
0.4 0.9 1
0.5 0.9 1
0.6 0.9 1
0.7 0.9 1
0.8 0.9 1
0.9 0.9 1
1 0.9 1
1.1 0.9 1
1.2 0.9 1
1.3 0.9 1
1.4 0.9 1
1.5 0.9 1
1.6 0.9 1
1.7 0.9 1
1.8 0.9 1
1.9 0.9 1
-0.1 1 1
0 1 1
0.1 1 1
0.2 1 1
0.3 1 1
0.4 1 1
0.5 1 1
0.6 1 1
0.7 1 1
0.8 1 1
0.9 1 1
1 1 1
1.1 1 1
1.2 1 1
1.3 1 1
1.4 1 1
1.5 1 1
1.6 1 1
1.7 1 1
1.8 1 1
1.9 1 1
-0.1 1.1 1
0 1.1 1
0.1 1.1 1
0.2 1.1 1
0.3 1.1 1
0.4 1.1 1
0.5 1.1 1
0.6 1.1 1
0.7 1.1 1
0.8 1.1 1
0.9 1.1 1
1 1.1 1
1.1 1.1 1
1.2 1.1 1
1.3 1.1 1
1.4 1.1 1
1.5 1.1 1
1.6 1.1 1
1.7 1.1 1
1.8 1.1 1
1.9 1.1 1
-0.1 1.2 1
0 1.2 1
0.1 1.2 1
0.2 1.2 1
0.3 1.2 1
0.4 1.2 1
0.5 1.2 1
0.6 1.2 1
0.7 1.2 1
0.8 1.2 1
0.9 1.2 1
1 1.2 1
1.1 1.2 1
1.2 1.2 1
1.3 1.2 1
1.4 1.2 1
1.5 1.2 1
1.6 1.2 1
1.7 1.2 1
1.8 1.2 1
1.9 1.2 1
-0.1 1.3 1
0 1.3 1
0.1 1.3 1
0.2 1.3 1
0.3 1.3 1
0.4 1.3 1
0.5 1.3 1
0.6 1.3 1
0.7 1.3 1
0.8 1.3 1
0.9 1.3 1
1 1.3 1
1.1 1.3 1
1.2 1.3 1
1.3 1.3 1
1.4 1.3 1
1.5 1.3 1
1.6 1.3 1
1.7 1.3 1
1.8 1.3 1
1.9 1.3 1
-0.1 1.4 1
0 1.4 1
0.1 1.4 1
0.2 1.4 1
0.3 1.4 1
0.4 1.4 1
0.5 1.4 1
0.6 1.4 1
0.7 1.4 1
0.8 1.4 1
0.9 1.4 1
1 1.4 1
1.1 1.4 1
1.2 1.4 1
1.3 1.4 1
1.4 1.4 1
1.5 1.4 1
1.6 1.4 1
1.7 1.4 1
1.8 1.4 1
1.9 1.4 1
-0.1 1.5 1
0 1.5 1
0.1 1.5 1
0.2 1.5 1
0.3 1.5 1
0.4 1.5 1
0.5 1.5 1
0.6 1.5 1
0.7 1.5 1
0.8 1.5 1
0.9 1.5 1
1 1.5 1
1.1 1.5 1
1.2 1.5 1
1.3 1.5 1
1.4 1.5 1
1.5 1.5 1
1.6 1.5 1
1.7 1.5 1
1.8 1.5 1
1.9 1.5 1
-0.1 1.6 1
0 1.6 1
0.1 1.6 1
0.2 1.6 1
0.3 1.6 1
0.4 1.6 1
0.5 1.6 1
0.6 1.6 1
0.7 1.6 1
0.8 1.6 1
0.9 1.6 1
1 1.6 1
1.1 1.6 1
1.2 1.6 1
1.3 1.6 1
1.4 1.6 1
1.5 1.6 1
1.6 1.6 1
1.7 1.6 1
1.8 1.6 1
1.9 1.6 1
-0.1 1.7 1
0 1.7 1
0.1 1.7 1
0.2 1.7 1
0.3 1.7 1
0.4 1.7 1
0.5 1.7 1
0.6 1.7 1
0.7 1.7 1
0.8 1.7 1
0.9 1.7 1
1 1.7 1
1.1 1.7 1
1.2 1.7 1
1.3 1.7 1
1.4 1.7 1
1.5 1.7 1
1.6 1.7 1
1.7 1.7 1
1.8 1.7 1
1.9 1.7 1
-0.1 1.8 1
0 1.8 1
0.1 1.8 1
0.2 1.8 1
0.3 1.8 1
0.4 1.8 1
0.5 1.8 1
0.6 1.8 1
0.7 1.8 1
0.8 1.8 1
0.9 1.8 1
1 1.8 1
1.1 1.8 1
1.2 1.8 1
1.3 1.8 1
1.4 1.8 1
1.5 1.8 1
1.6 1.8 1
1.7 1.8 1
1.8 1.8 1
1.9 1.8 1
-0.1 1.9 1
0 1.9 1
0.1 1.9 1
0.2 1.9 1
0.3 1.9 1
0.4 1.9 1
0.5 1.9 1
0.6 1.9 1
0.7 1.9 1
0.8 1.9 1
0.9 1.9 1
1 1.9 1
1.1 1.9 1
1.2 1.9 1
1.3 1.9 1
1.4 1.9 1
1.5 1.9 1
1.6 1.9 1
1.7 1.9 1
1.8 1.9 1
1.9 1.9 1
-0.1 -0.1 1.1
0 -0.1 1.1
0.1 -0.1 1.1
0.2 -0.1 1.1
0.3 -0.1 1.1
0.4 -0.1 1.1
0.5 -0.1 1.1
0.6 -0.1 1.1
0.7 -0.1 1.1
0.8 -0.1 1.1
0.9 -0.1 1.1
1 -0.1 1.1
1.1 -0.1 1.1
1.2 -0.1 1.1
1.3 -0.1 1.1
1.4 -0.1 1.1
1.5 -0.1 1.1
1.6 -0.1 1.1
1.7 -0.1 1.1
1.8 -0.1 1.1
1.9 -0.1 1.1
-0.1 0 1.1
0 0 1.1
0.1 0 1.1
0.2 0 1.1
0.3 0 1.1
0.4 0 1.1
0.5 0 1.1
0.6 0 1.1
0.7 0 1.1
0.8 0 1.1
0.9 0 1.1
1 0 1.1
1.1 0 1.1
1.2 0 1.1
1.3 0 1.1
1.4 0 1.1
1.5 0 1.1
[...]
CELL_DATA 4000
VECTORS velocity double 
6.31894e-05 -4.35939e-05 0.00349126
0.00011246 -2.56288e-05 0.00523766
0.00012388 -1.82144e-05 0.00575505
0.000110277 -1.88338e-05 0.00593822
8.20283e-05 -2.15641e-05 0.00600796
4.5018e-05 -2.48174e-05 0.00602155
3.24382e-06 -2.86077e-05 0.0059951
-4.00808e-05 -3.30984e-05 0.00593471
-8.17128e-05 -3.81875e-05 0.00584395
-0.000118639 -4.35091e-05 0.00572643
-0.000148166 -4.84497e-05 0.00558731
-0.000168152 -5.22664e-05 0.00543405
-0.000177837 -5.41534e-05 0.00527687
-0.000178319 -5.33673e-05 0.00512809
-0.000172678 -4.95729e-05 0.00500105
-0.000166005 -4.28312e-05 0.0049068
-0.00016436 -3.46043e-05 0.00484545
-0.000169732 -2.71256e-05 0.00477352
-0.000171178 -2.32923e-05 0.00447735
-8.55888e-05 -1.39676e-05 0.00308328
9.78003e-05 -0.00022862 0.00549086
0.000163376 -0.000248826 0.00881359
0.000179287 -0.000253463 0.00985712
0.000163536 -0.000263412 0.0102131
0.000128082 -0.000272637 0.0103376
7.92468e-05 -0.000280507 0.0103562
2.14662e-05 -0.000288413 0.010302
-4.12673e-05 -0.000297395 0.0101863
-0.000104552 -0.00030751 0.0100151
-0.000163836 -0.000317981 0.00979509
-0.000214693 -0.000327326 0.00953558
-0.000253196 -0.000333654 0.00925017
-0.000276982 -0.000334944 0.00895711
-0.000286236 -0.00032929 0.00867916
-0.00028394 -0.000315418 0.00844124
-0.000277099 -0.000293709 0.00826479
-0.000274858 -0.000266834 0.00814834
-0.000283203 -0.000240429 0.00799874
-0.000282199 -0.000220098 0.00739138
-0.0001411 -0.000177268 0.00479728
9.64256e-05 -0.000614916 0.00636073
0.000153431 -0.000745463 0.010159
0.000160211 -0.000787644 0.0113502
0.00013704 -0.000818682 0.0117588
9.51657e-05 -0.00083929 0.0119049
3.97827e-05 -0.000853176 0.0119284
-2.53493e-05 -0.000864949 0.0118635
-9.62466e-05 -0.000877358 0.0117206
-0.000167985 -0.000890853 0.0115061
-0.000235033 -0.000904311 0.0112273
-0.000291756 -0.000915431 0.0108951
-0.000332995 -0.00092106 0.010526
-0.000355177 -0.00091759 0.0101429
-0.000357546 -0.000901654 0.00977543
-0.000343383 -0.000870681 0.00945774
-0.000320912 -0.000824705 0.00922211
-0.000302704 -0.000767824 0.00907778
-0.00029934 -0.000709094 0.00893152
-0.000293301 -0.000656335 0.0083135
-0.00014665 -0.000533794 0.00548083
6.76517e-05 -0.00122434 0.00674774
9.49648e-05 -0.00155336 0.0104235
8.16292e-05 -0.00166235 0.0115222
4.67389e-05 -0.00172802 0.0119047
-2.17259e-06 -0.00176586 0.0120525
-6.27726e-05 -0.00178763 0.0120805
-0.000132749 -0.00180313 0.0120115
-0.000208309 -0.00181774 0.0118513
-0.000284083 -0.0018328 0.0116051
-0.000353601 -0.00184695 0.0112799
-0.000409887 -0.00185699 0.0108874
-0.00044623 -0.00185829 0.0104458
-0.000457674 -0.00184539 0.00998176
-0.000442224 -0.00181291 0.00953129
-0.000403118 -0.00175686 0.00913841
-0.000350226 -0.00167632 0.00884966
-0.00030001 -0.00157649 0.0086964
-0.000270358 -0.00146998 0.00862205
-0.000255262 -0.00136489 0.00820991
-0.000127631 -0.00109754 0.00569652
1.23025e-05 -0.00206218 0.00660211
-1.18031e-05 -0.00269359 0.00962937
-5.67641e-05 -0.0029033 0.0104295
-0.000107682 -0.00301892 0.0107159
-0.000164011 -0.00308082 0.0108456
-0.000228225 -0.00311296 0.0108755
-0.00030038 -0.0031324 0.0108052
-0.000377364 -0.00314818 0.0106327
-0.000453439 -0.00316304 0.0103603
-0.000521109 -0.00317559 0.00999461
-0.000571836 -0.00318166 0.00954731
-0.000597036 -0.00317502 0.00903779
-0.000589862 -0.00314794 0.00849658
-0.000546957 -0.00309254 0.00796639
-0.000470867 -0.00300254 0.0075018
-0.000373089 -0.00287602 0.00716744
-0.000274821 -0.00271866 0.00702712
-0.000204599 -0.00254704 0.00709238
-0.000176012 -0.00236453 0.00708221
-8.8006e-05 -0.00187127 0.0053946
-7.19161e-05 -0.00310718 0.00568804
-0.000171189 -0.00415552 0.00742519
-0.000260353 -0.00450418 0.00768522
-0.000332052 -0.00468651 0.00779077
-0.000396252 -0.00478001 0.00787549
-0.000462288 -0.00482539 0.00790048
-0.000533648 -0.00484933 0.00782989
-0.000608423 -0.00486565 0.00764927
-0.000680688 -0.00487902 0.00735705
-0.000741938 -0.00488818 0.00695809
-0.000781891 -0.00488795 0.00646356
-0.00078963 -0.00487033 0.00589394
-0.000755897 -0.00482512 0.00528341
-0.00067523 -0.00474109 0.00468185
-0.000549442 -0.00460909 0.0041559
-0.000391079 -0.00442498 0.00379112
-0.000227502 -0.00419507 0.00369563
-0.000100393 -0.0039384 0.00398244
-5.27191e-05 -0.00364827 0.00460302
-2.63596e-05 -0.00283691 0.00435528
-0.000187409 -0.00429937 0.00371301
-0.000387622 -0.00588033 0.00333442
-0.000534609 -0.00640871 0.00274985
-0.000632295 -0.00667497 0.00256566
-0.000704907 -0.00680756 0.00256803
-0.000770933 -0.00686914 0.00257771
-0.000838474 -0.00689843 0.0025073
-0.000907388 -0.00691507 0.00232488
-0.000971781 -0.00692606 0.00202308
-0.00102204 -0.00693064 0.00160414
-0.00104606 -0.00692265 0.00107825
-0.00103029 -0.00689203 0.000466446
-0.000962108 -0.00682585 -0.000194383
-0.000833429 -0.00670916 -0.000847592
-0.000644282 -0.00652875 -0.00141382
-0.000408637 -0.00627732 -0.00178241
-0.000159799 -0.00596012 -0.00178925
4.31479e-05 -0.00559786 -0.00117961
0.000117011 -0.00516586 0.000346552
5.85057e-05 -0.00393973 0.00230784
-0.000335293 -0.0055271 0.000394787
-0.000662801 -0.00773972 -0.00309224
-0.000881222 -0.00848603 -0.00488751
-0.00100977 -0.00885127 -0.00549583
-0.00109105 -0.00902918 -0.00562395
-0.00115506 -0.00910938 -0.00564489
-0.00121557 -0.00914483 -0.00571634
-0.00127478 -0.009162 -0.00589431
-0.00132725 -0.00917048 -0.00619397
-0.00136224 -0.00917021 -0.00661667
-0.00136568 -0.00915439 -0.00715413
-0.00132112 -0.00911104 -0.00778531
-0.00121209 -0.00902393 -0.00847124
-0.00102665 -0.00887418 -0.00914912
-0.000762098 -0.00864318 -0.00972598
-0.000432379 -0.00831872 -0.0100621
-7.76949e-05 -0.00790314 -0.00992229
0.0002218 -0.00741632 -0.00886447
0.000331277 -0.0068062 -0.00610164
0.000165638 -0.00507696 -0.00100882
-0.000511577 -0.00661802 -0.0044883
-0.000989534 -0.00952203 -0.0122149
-0.00129087 -0.0105151 -0.0156446
-0.00145409 -0.0109887 -0.0168362
-0.00154386 -0.0112149 -0.0171536
-0.0016039 -0.0113148 -0.0172249
-0.00165467 -0.0113568 -0.0173007
-0.00170109 -0.011375 -0.0174687
-0.00173848 -0.0113817 -0.0177544
-0.0017554 -0.0113777 -0.0181631
-0.0017357 -0.011356 -0.0186892
-0.00165964 -0.011303 -0.0193125
-0.00150664 -0.0111996 -0.0199925
-0.00125945 -0.011022 -0.0206605
-0.000910899 -0.0107453 -0.0212098
-0.000473418 -0.01035 -0.0214675
6.36592e-06 -0.00983282 -0.0211109
0.000424144 -0.00920792 -0.0194575
0.000581055 -0.00838657 -0.0150776
0.000290528 -0.00609136 -0.00580426
-0.000705983 -0.00733902 -0.0110399
-0.00134882 -0.0109266 -0.0241921
-0.00173923 -0.0121762 -0.0297081
-0.00193837 -0.0127573 -0.0316554
-0.00203576 -0.0130293 -0.032227
-0.00209012 -0.0131473 -0.0323717
-0.00212929 -0.0131956 -0.0324568
-0.00216114 -0.0132152 -0.0326101
-0.00218203 -0.0132216 -0.0328707
-0.00218032 -0.0132166 -0.0332478
-0.00213812 -0.0131933 -0.0337383
-0.00203257 -0.0131374 -0.0343239
-0.00183812 -0.0130275 -0.0349634
-0.00153112 -0.0128349 -0.0355831
-0.00109756 -0.0125273 -0.0360627
-0.000546093 -0.0120759 -0.0361915
7.2692e-05 -0.0114668 -0.0355419
0.000627514 -0.0107029 -0.0331332
0.000845089 -0.00964762 -0.0267311
0.000422544 -0.00676935 -0.0121772
-0.000899275 -0.0074093 -0.0191612
-0.00170497 -0.0115746 -0.0388361
-0.00218115 -0.0130602 -0.0468658
-0.00241313 -0.0137319 -0.0497349
-0.00251605 -0.0140388 -0.0506232
-0.00256344 -0.0141698 -0.0508642
-0.00259038 -0.0142227 -0.0509649
-0.00260789 -0.014244 -0.0511005
-0.00261355 -0.014252 -0.0513265
-0.00259614 -0.0142497 -0.0516572
-0.00253668 -0.0142312 -0.0520915
-0.00240977 -0.0141826 -0.0526128
-0.00218477 -0.0140812 -0.0531803
-0.00183031 -0.0138948 -0.0537175
-0.0013236 -0.0135839 -0.0540901
-0.000664789 -0.0131077 -0.0540464
9.42452e-05 -0.0124371 -0.0530343
0.000796496 -0.0115537 -0.0497184
0.00108834 -0.0102621 -0.0409062
0.000544172 -0.0068536 -0.0200427
-0.00106182 -0.00653472 -0.0284755
-0.00200294 -0.0110459 -0.055479
-0.00254653 -0.0127046 -0.066344
-0.0028015 -0.0134286 -0.0702596
-0.00290613 -0.0137488 -0.0715101
-0.00294603 -0.0138826 -0.0718638
-0.00296197 -0.0139365 -0.0719861
-0.00296783 -0.0139594 -0.0721042
-0.00296279 -0.0139707 -0.0722905
-0.00293653 -0.0139752 -0.0725655
-0.00287043 -0.0139688 -0.0729304
-0.00273746 -0.0139395 -0.0733704
-0.00250272 -0.0138658 -0.0738467
-0.00212736 -0.0137143 -0.0742817
-0.00157671 -0.0134399 -0.0745293
-0.000838484 -0.0129896 -0.0742926
4.11536e-05 -0.012314 -0.0728783
0.000885195 -0.011361 -0.0685447
0.0012618 -0.00986422 -0.0570208
0.000630899 -0.00607255 -0.0290642
-0.00115319 -0.00447013 -0.0382824
-0.00216673 -0.00895007 -0.0728712
-0.00273916 -0.0106652 -0.0866692
-0.00299833 -0.0113784 -0.0916632
-0.00309804 -0.0116795 -0.0932838
-0.00313058 -0.0118012 -0.0937514
-0.00313892 -0.0118502 -0.0938967
-0.00313854 -0.0118732 -0.0939997
-0.00313042 -0.0118889 -0.0941479
-0.00310604 -0.0119033 -0.0943671
-0.00304853 -0.011915 -0.0946614
-0.00293139 -0.011916 -0.095019
-0.00271786 -0.0118889 -0.0954055
-0.0023628 -0.0118036 -0.0957455
-0.0018191 -0.0116137 -0.0958845
-0.00105736 -0.0112571 -0.0954799
-0.000108081 -0.0106612 -0.0936855
0.000844665 -0.0097276 -0.0883201
0.00130738 -0.00810706 -0.0739739
0.000653689 -0.00419466 -0.038613
-0.00112289 -0.00111099 -0.0475655
-0.0021016 -0.00503589 -0.0891323
-0.0026401 -0.00663127 -0.105565
-0.00287464 -0.00724556 -0.111495
-0.00295988 -0.00748579 -0.113424
-0.00298523 -0.007578 -0.113982
-0.0029909 -0.00761527 -0.114144
-0.00299184 -0.00763583 -0.114234
-0.00299036 -0.00765531 -0.114352
-0.00298068 -0.00768008 -0.114526
-0.00294943 -0.00771225 -0.114763
-0.00287351 -0.00774948 -0.115056
-0.00271859 -0.00778207 -0.11538
-0.00243691 -0.00778824 -0.115667
-0.00197189 -0.00772837 -0.115761
-0.00127422 -0.00753915 -0.115281
-0.0003483 -0.00712927 -0.113233
0.000638178 -0.00634596 -0.107003
0.00116905 -0.0047487 -0.0900805
0.000584525 -0.00110821 -0.0477714
-0.000912328 0.0033939 -0.0549962
-0.00170111 0.000664003 -0.101623
-0.00211899 -0.000581984 -0.119715
-0.00229149 -0.000994292 -0.126132
-0.00235093 -0.00112984 -0.128184
-0.00236956 -0.00117565 -0.128765
-0.00237841 -0.00119458 -0.128925
-0.00238918 -0.00120945 -0.129005
-0.00240455 -0.00123001 -0.129104
-0.00242196 -0.00126233 -0.129252
-0.00243325 -0.00131186 -0.129458
-0.00242227 -0.00138267 -0.129724
-0.00236173 -0.00147514 -0.130034
-0.00220941 -0.00158147 -0.13034
-0.00190656 -0.00167792 -0.130499
-0.00138842 -0.00171444 -0.130115
-0.000625279 -0.00159582 -0.128093
0.0002633 -0.00112176 -0.121485
0.000806645 0.000232195 -0.102878
0.000403323 0.00308246 -0.0553076
-0.000466806 0.00851423 -0.058724
-0.000870714 0.00766817 -0.106149
-0.00106657 0.00703095 -0.123712
-0.00113662 0.00691683 -0.129642
-0.00115933 0.00691875 -0.131437
-0.00117278 0.0069299 -0.131912
-0.00119149 0.00693357 -0.132034
-0.00122086 0.00692781 -0.1321
-0.00126279 0.00691054 -0.132194
-0.00131771 0.00687692 -0.132337
-0.00138334 0.00681937 -0.132543
-0.00145281 0.00672804 -0.132821
-0.00151172 0.00659229 -0.133173
-0.00153226 0.00640349 -0.133579
-0.00146789 0.00616151 -0.133934
-0.001253 0.00588684 -0.133885
-0.000828445 0.00565083 -0.132367
-0.000234707 0.00566705 -0.126394
0.000208415 0.00649708 -0.10821
0.000104207 0.00794078 -0.0594073
0.000259755 0.0131979 -0.0548456
0.000441155 0.0148123 -0.0940949
0.000551766 0.0150025 -0.106965
0.000606888 0.0152355 -0.11077
0.000618689 0.0153788 -0.111734
0.000599103 0.0154448 -0.111921
0.000555954 0.015471 -0.111955
0.000492651 0.015477 -0.112001
0.000409475 0.0154681 -0.112095
0.000304526 0.0154415 -0.112248
0.000174932 0.0153891 -0.112469
1.80025e-05 0.0152981 -0.112778
-0.000167388 0.0151506 -0.113195
-0.000375999 0.0149246 -0.113735
-0.000589931 0.0145954 -0.114362
-0.00076996 0.0141434 -0.114862
-0.000855945 0.0135857 -0.11446
-0.000801897 0.0130833 -0.110788
-0.000649273 0.0131162 -0.0971831
-0.000324636 0.012536 -0.0560507
0.0012516 0.0157396 -0.0308005
0.0021466 0.019923 -0.0427266
0.00257517 0.0209607 -0.0443979
0.00272465 0.0214826 -0.0441889
0.00273048 0.0217256 -0.043829
0.0026634 0.0218281 -0.04361
0.00255592 0.0218716 -0.0435294
0.00242154 0.0218899 -0.0435472
0.00226448 0.0218931 -0.0436365
0.0020835 0.0218806 -0.04379
0.00187351 0.0218454 -0.0440144
0.00162495 0.0217751 -0.0443291
0.00132416 0.0216514 -0.0447669
0.000952115 0.0214471 -0.0453726
0.000487233 0.0211234 -0.0461946
-8.76187e-05 0.0206296 -0.0472397
-0.000767318 0.0199191 -0.0483464
-0.00147051 0.0190347 -0.0488404
-0.0018558 0.0181828 -0.0464303
-0.000927898 0.015213 -0.0323843
0.00225018 0.0138608 0.0593901
0.00372133 0.0191731 0.110525
0.00429588 0.0204926 0.12586
0.0043904 0.0210434 0.130366
0.00426937 0.021281 0.131786
0.00405666 0.0213809 0.132258
0.00380575 0.0214266 0.132398
0.00353893 0.0214506 0.132402
0.00326421 0.0214627 0.132333
0.00298187 0.0214631 0.132208
0.00268674 0.0214477 0.132027
0.00236751 0.0214082 0.131776
0.00200401 0.021331 0.131428
0.00156227 0.0211952 0.130932
0.000988377 0.0209677 0.130197
0.000200767 0.0205978 0.129038
-0.00090005 0.0200188 0.126955
-0.00231009 0.0191891 0.122135
-0.00335742 0.0179959 0.107305
-0.00167871 0.0135491 0.0578432
0.00200926 0.00693042 0.38774
0.00320668 0.00958657 0.527048
0.00347966 0.0102463 0.551496
0.00331674 0.0105217 0.556263
0.00300475 0.0106405 0.557386
0.0026626 0.0106904 0.557697
0.00233442 0.0107133 0.557779
0.00203458 0.0107253 0.557778
0.00176447 0.0107314 0.557736
0.00152071 0.0107316 0.557664
0.00129613 0.0107239 0.557564
0.0010796 0.0107041 0.55743
0.000853953 0.0106655 0.557253
0.000589774 0.0105976 0.557007
0.000236375 0.0104839 0.556635
-0.000295674 0.0102989 0.555987
-0.00114113 0.0100094 0.554526
-0.00235959 0.00959455 0.54958
-0.00327242 0.00899793 0.525325
-0.00163621 0.00677457 0.386606
5.68601e-05 5.3491e-05 0.00345514
0.000113569 8.73254e-05 0.00526985
0.000135347 0.000100674 0.00580916
0.000130596 0.000104624 0.00600042
0.000108355 0.000104802 0.0060766
7.44103e-05 0.000103069 0.00609708
3.26505e-05 9.97967e-05 0.00607793
-1.36992e-05 9.50971e-05 0.00602473
-6.15418e-05 8.90696e-05 0.00594048
-0.000107681 8.19753e-05 0.00582813
-0.000148791 7.43926e-05 0.00569225
-0.000181883 6.71052e-05 0.00553979
-0.000204794 6.08985e-05 0.00538087
-0.000216823 5.67301e-05 0.00522807
-0.000219134 5.53028e-05 0.00509558
-0.000215039 5.69319e-05 0.00499558
-0.00020826 6.08411e-05 0.00492897
-0.00019971 6.55469e-05 0.00485035
-0.000180129 6.96865e-05 0.00453397
-9.00647e-05 7.35493e-05 0.00307733
9.34798e-05 4.6752e-05 0.00560759
0.000171472 8.67039e-05 0.00910687
0.000203886 0.00010339 0.010207
0.000202997 0.000107284 0.0105832
0.000178947 0.000106339 0.0107198
0.000137636 0.000102641 0.0107484
8.31198e-05 9.60189e-05 0.0107031
1.9002e-05 8.6107e-05 0.0105946
-5.08214e-05 7.29779e-05 0.0104286
-0.000121803 5.74188e-05 0.0102108
-0.000188913 4.07271e-05 0.00995007
-0.000247356 2.46027e-05 0.00965922
-0.000292925 1.125e-05 0.0093566
-0.000323291 2.9931e-06 0.00906574
-0.000338655 2.03254e-06 0.00881329
-0.000342895 9.05024e-06 0.00862271
-0.000341327 2.29594e-05 0.00849411
-0.000335938 3.96799e-05 0.00832965
-0.000307167 5.46655e-05 0.00767747
-0.000153583 6.58137e-05 0.00492822
0.00010576 -0.000132459 0.00666277
0.000187644 -0.000133643 0.0107128
0.000219289 -0.000130843 0.0119803
0.000215855 -0.00013503 0.0124171
0.000187876 -0.000140127 0.0125799
0.000140837 -0.000146386 0.0126158
7.84116e-05 -0.00015601 0.0125607
4.23562e-06 -0.000170307 0.0124247
-7.72045e-05 -0.000189404 0.0122136
-0.000160582 -0.000212296 0.0119341
-0.000239888 -0.00023689 0.0115961
-0.000308853 -0.00026034 0.0112155
-0.000361834 -0.000278853 0.0108151
-0.000394941 -0.000288162 0.0104255
-0.000408009 -0.000284386 0.0100834
-0.000405147 -0.000265584 0.00982407
-0.000394311 -0.000233456 0.00965988
-0.000380528 -0.00019465 0.00949348
-0.000344226 -0.00015827 0.00882093
-0.000172113 -0.000111502 0.00577671
9.82054e-05 -0.000547486 0.00728253
0.000169122 -0.000659581 0.0112752
0.00019215 -0.000692875 0.0124628
0.000182853 -0.000715505 0.0128804
0.000149904 -0.000729102 0.0130496
9.71261e-05 -0.000739123 0.0130931
2.75369e-05 -0.00075122 0.013035
-5.52658e-05 -0.000768723 0.0128814
-0.000146399 -0.000792121 0.012637
-0.000239571 -0.000820225 0.012308
-0.000327574 -0.000850345 0.0119048
-0.000402477 -0.00087827 0.0114447
-0.0004567 -0.000898352 0.0109543
-0.000484683 -0.00090406 0.0104709
-0.000485228 -0.000889324 0.0100413
-0.000463168 -0.000850469 0.00971686
-0.000429331 -0.000789445 0.0095342
-0.000394876 -0.000716123 0.00943549
-0.00034702 -0.000643262 0.00896825
-0.00017351 -0.000509182 0.00620131
6.944e-05 -0.00124292 0.00741427
0.000112419 -0.00156094 0.0108173
0.000117986 -0.00165857 0.0117142
9.94393e-05 -0.00171259 0.0120419
6.10221e-05 -0.00174035 0.0121986
3.55247e-06 -0.00175596 0.0122472
-7.16205e-05 -0.00177046 0.0121892
-0.000160963 -0.00178964 0.012023
-0.000259265 -0.0018152 0.0117506
-0.000359461 -0.00184589 0.0113776
-0.000452845 -0.00187835 0.010914
-0.000529533 -0.00190698 0.010378
-0.000579625 -0.00192397 0.00979984
-0.000595402 -0.00192018 0.00922361
-0.000574075 -0.00188662 0.00870771
-0.000521032 -0.00181767 0.00832289
-0.000450966 -0.00171504 0.0081416
-0.000383681 -0.00159219 0.00817903
-0.000319646 -0.00146238 0.00812073
-0.000159823 -0.00116682 0.00614817
1.58636e-05 -0.00224043 0.00680407
1.08131e-05 -0.00288352 0.00896188
-1.17571e-05 -0.00308058 0.0093199
-4.36407e-05 -0.00318149 0.00947169
-8.80803e-05 -0.00323049 0.0095888
-0.000149018 -0.00325412 0.00963638
-0.000227234 -0.00327104 0.0095797
-0.000320095 -0.00329068 0.00940516
-0.000422114 -0.0033162 0.00911112
-0.000525446 -0.00334664 0.00870112
-0.00061983 -0.00337788 0.00818448
-0.000693059 -0.00340288 0.00758001
-0.000732565 -0.00341158 0.0069211
-0.000727717 -0.00339166 0.00625896
-0.000673911 -0.00333077 0.00566478
-0.000576583 -0.0032203 0.0052326
-0.000455302 -0.00306174 0.00508286
-0.000341071 -0.00287133 0.00533962
-0.000256052 -0.00265833 0.00592716
-0.000128026 -0.00210546 0.00537979
-6.67084e-05 -0.00352676 0.00512878
-0.000143495 -0.00463248 0.00518982
-0.000206718 -0.0049701 0.00469409
-0.000256942 -0.00513546 0.00455833
-0.000307991 -0.00521344 0.00459819
-0.000370797 -0.00524826 0.00463418
-0.000449264 -0.00526803 0.00457932
-0.00054196 -0.0052871 0.00440282
-0.000643485 -0.0053105 0.00409732
-0.000745125 -0.00533772 0.00366374
-0.000835051 -0.00536409 0.00310979
-0.000898615 -0.0053811 0.00245434
-0.000919958 -0.00537619 0.00173295
-0.000885055 -0.0053336 0.00100345
-0.000786395 -0.00523671 0.000350559
-0.000629659 -0.00507338 -0.00010417
-0.000439379 -0.00484352 -0.000179061
-0.000261744 -0.00456593 0.000401122
-0.000149981 -0.00423754 0.00192164
-7.49906e-05 -0.0033133 0.00359693
-0.000181639 -0.00503688 0.00205997
-0.000356322 -0.00674803 -0.00101446
-0.000474018 -0.00727015 -0.00274652
-0.000547793 -0.00751751 -0.00330964
-0.000606311 -0.00763236 -0.00339698
-0.000669144 -0.0076814 -0.00338848
-0.00074463 -0.00770483 -0.00344294
-0.000832916 -0.00772261 -0.003615
-0.000928946 -0.00774217 -0.00391981
-0.00102334 -0.00776369 -0.00436012
-0.00110272 -0.00778211 -0.00493063
-0.00114978 -0.0077876 -0.00561325
-0.00114512 -0.00776506 -0.00637092
-0.00107035 -0.00769493 -0.00713981
-0.000914487 -0.00755564 -0.00782102
-0.000682166 -0.00732995 -0.00826155
-0.000403987 -0.00701501 -0.00820272
-0.000144528 -0.00662996 -0.00716914
1.52822e-06 -0.00614919 -0.00436918
7.6411e-07 -0.00473101 0.000494685
-0.000328407 -0.00663704 -0.00268704
-0.00062699 -0.00908203 -0.0100923
-0.000812436 -0.0098302 -0.0135062
-0.000914779 -0.0101744 -0.0146638
-0.00098114 -0.0103323 -0.0149404
-0.00104221 -0.0103981 -0.0149805
-0.00111142 -0.0104259 -0.0150382
-0.00119109 -0.0104422 -0.0152001
-0.00127682 -0.010457 -0.0154916
-0.00135877 -0.0104714 -0.0159196
-0.00142216 -0.0104803 -0.0164819
-0.00144699 -0.0104727 -0.0171621
-0.00140987 -0.0104315 -0.0179224
-0.00128727 -0.0103326 -0.0186935
-0.00106318 -0.010149 -0.0193622
-0.000740232 -0.00985672 -0.0197399
-0.000354685 -0.00944776 -0.0194734
6.74031e-06 -0.00893793 -0.0178316