# vtk DataFile Version 2.0 
Visualization 
ASCII 
DATASET STRUCTURED_GRID 
DIMENSIONS 21 21 11
POINTS 4851 float
-0.1 -0.1 -0.1
0 -0.1 -0.1
0.1 -0.1 -0.1
0.2 -0.1 -0.1
0.3 -0.1 -0.1
0.4 -0.1 -0.1
0.5 -0.1 -0.1
0.6 -0.1 -0.1
0.7 -0.1 -0.1
0.8 -0.1 -0.1
0.9 -0.1 -0.1
1 -0.1 -0.1
1.1 -0.1 -0.1
1.2 -0.1 -0.1
1.3 -0.1 -0.1
1.4 -0.1 -0.1
1.5 -0.1 -0.1
1.6 -0.1 -0.1
1.7 -0.1 -0.1
1.8 -0.1 -0.1
1.9 -0.1 -0.1
-0.1 0 -0.1
0 0 -0.1
0.1 0 -0.1
0.2 0 -0.1
0.3 0 -0.1
0.4 0 -0.1
0.5 0 -0.1
0.6 0 -0.1
0.7 0 -0.1
0.8 0 -0.1
0.9 0 -0.1
1 0 -0.1
1.1 0 -0.1
1.2 0 -0.1
1.3 0 -0.1
1.4 0 -0.1
1.5 0 -0.1
1.6 0 -0.1
1.7 0 -0.1
1.8 0 -0.1
1.9 0 -0.1
-0.1 0.1 -0.1
0 0.1 -0.1
0.1 0.1 -0.1
0.2 0.1 -0.1
0.3 0.1 -0.1
0.4 0.1 -0.1
0.5 0.1 -0.1
0.6 0.1 -0.1
0.7 0.1 -0.1
0.8 0.1 -0.1
0.9 0.1 -0.1
1 0.1 -0.1
1.1 0.1 -0.1
1.2 0.1 -0.1
1.3 0.1 -0.1
1.4 0.1 -0.1
1.5 0.1 -0.1
1.6 0.1 -0.1
1.7 0.1 -0.1
1.8 0.1 -0.1
1.9 0.1 -0.1
-0.1 0.2 -0.1
0 0.2 -0.1
0.1 0.2 -0.1
0.2 0.2 -0.1
0.3 0.2 -0.1
0.4 0.2 -0.1
0.5 0.2 -0.1
0.6 0.2 -0.1
0.7 0.2 -0.1
0.8 0.2 -0.1
0.9 0.2 -0.1
1 0.2 -0.1
1.1 0.2 -0.1
1.2 0.2 -0.1
1.3 0.2 -0.1
1.4 0.2 -0.1
1.5 0.2 -0.1
1.6 0.2 -0.1
1.7 0.2 -0.1
1.8 0.2 -0.1
1.9 0.2 -0.1
-0.1 0.3 -0.1
0 0.3 -0.1
0.1 0.3 -0.1
0.2 0.3 -0.1
0.3 0.3 -0.1
0.4 0.3 -0.1
0.5 0.3 -0.1
0.6 0.3 -0.1
0.7 0.3 -0.1
0.8 0.3 -0.1
0.9 0.3 -0.1
1 0.3 -0.1
1.1 0.3 -0.1
1.2 0.3 -0.1
1.3 0.3 -0.1
1.4 0.3 -0.1
1.5 0.3 -0.1
1.6 0.3 -0.1
1.7 0.3 -0.1
1.8 0.3 -0.1
1.9 0.3 -0.1
-0.1 0.4 -0.1
0 0.4 -0.1
0.1 0.4 -0.1
0.2 0.4 -0.1
0.3 0.4 -0.1
0.4 0.4 -0.1
0.5 0.4 -0.1
0.6 0.4 -0.1
0.7 0.4 -0.1
0.8 0.4 -0.1
0.9 0.4 -0.1
1 0.4 -0.1
1.1 0.4 -0.1
1.2 0.4 -0.1
1.3 0.4 -0.1
1.4 0.4 -0.1
1.5 0.4 -0.1
1.6 0.4 -0.1
1.7 0.4 -0.1
1.8 0.4 -0.1
1.9 0.4 -0.1
-0.1 0.5 -0.1
0 0.5 -0.1
0.1 0.5 -0.1
0.2 0.5 -0.1
0.3 0.5 -0.1
0.4 0.5 -0.1
0.5 0.5 -0.1
0.6 0.5 -0.1
0.7 0.5 -0.1
0.8 0.5 -0.1
0.9 0.5 -0.1
1 0.5 -0.1
1.1 0.5 -0.1
1.2 0.5 -0.1
1.3 0.5 -0.1
1.4 0.5 -0.1
1.5 0.5 -0.1
1.6 0.5 -0.1
1.7 0.5 -0.1
1.8 0.5 -0.1
1.9 0.5 -0.1
-0.1 0.6 -0.1
0 0.6 -0.1
0.1 0.6 -0.1
0.2 0.6 -0.1
0.3 0.6 -0.1
0.4 0.6 -0.1
0.5 0.6 -0.1
0.6 0.6 -0.1
0.7 0.6 -0.1
0.8 0.6 -0.1
0.9 0.6 -0.1
1 0.6 -0.1
1.1 0.6 -0.1
1.2 0.6 -0.1
1.3 0.6 -0.1
1.4 0.6 -0.1
1.5 0.6 -0.1
1.6 0.6 -0.1
1.7 0.6 -0.1
1.8 0.6 -0.1
1.9 0.6 -0.1
-0.1 0.7 -0.1
0 0.7 -0.1
0.1 0.7 -0.1
0.2 0.7 -0.1
0.3 0.7 -0.1
0.4 0.7 -0.1
0.5 0.7 -0.1
0.6 0.7 -0.1
0.7 0.7 -0.1
0.8 0.7 -0.1
0.9 0.7 -0.1
1 0.7 -0.1
1.1 0.7 -0.1
1.2 0.7 -0.1
1.3 0.7 -0.1
1.4 0.7 -0.1
1.5 0.7 -0.1
1.6 0.7 -0.1
1.7 0.7 -0.1
1.8 0.7 -0.1
1.9 0.7 -0.1
-0.1 0.8 -0.1
0 0.8 -0.1
0.1 0.8 -0.1
0.2 0.8 -0.1
0.3 0.8 -0.1
0.4 0.8 -0.1
0.5 0.8 -0.1
0.6 0.8 -0.1
0.7 0.8 -0.1
0.8 0.8 -0.1
0.9 0.8 -0.1
1 0.8 -0.1
1.1 0.8 -0.1
1.2 0.8 -0.1
1.3 0.8 -0.1
1.4 0.8 -0.1
1.5 0.8 -0.1
1.6 0.8 -0.1
1.7 0.8 -0.1
1.8 0.8 -0.1
1.9 0.8 -0.1
-0.1 0.9 -0.1
0 0.9 -0.1
0.1 0.9 -0.1
0.2 0.9 -0.1
0.3 0.9 -0.1
0.4 0.9 -0.1
0.5 0.9 -0.1
0.6 0.9 -0.1
0.7 0.9 -0.1
0.8 0.9 -0.1
0.9 0.9 -0.1
1 0.9 -0.1
1.1 0.9 -0.1
1.2 0.9 -0.1
1.3 0.9 -0.1
1.4 0.9 -0.1
1.5 0.9 -0.1
1.6 0.9 -0.1
1.7 0.9 -0.1
1.8 0.9 -0.1
1.9 0.9 -0.1
-0.1 1 -0.1
0 1 -0.1
0.1 1 -0.1
0.2 1 -0.1
0.3 1 -0.1
0.4 1 -0.1
0.5 1 -0.1
0.6 1 -0.1
0.7 1 -0.1
0.8 1 -0.1
0.9 1 -0.1
1 1 -0.1
1.1 1 -0.1
1.2 1 -0.1
1.3 1 -0.1
1.4 1 -0.1
1.5 1 -0.1
1.6 1 -0.1
1.7 1 -0.1
1.8 1 -0.1
1.9 1 -0.1
-0.1 1.1 -0.1
0 1.1 -0.1
0.1 1.1 -0.1
0.2 1.1 -0.1
0.3 1.1 -0.1
0.4 1.1 -0.1
0.5 1.1 -0.1
0.6 1.1 -0.1
0.7 1.1 -0.1
0.8 1.1 -0.1
0.9 1.1 -0.1
1 1.1 -0.1
1.1 1.1 -0.1
1.2 1.1 -0.1
1.3 1.1 -0.1
1.4 1.1 -0.1
1.5 1.1 -0.1
1.6 1.1 -0.1
1.7 1.1 -0.1
1.8 1.1 -0.1
1.9 1.1 -0.1
-0.1 1.2 -0.1
0 1.2 -0.1
0.1 1.2 -0.1
0.2 1.2 -0.1
0.3 1.2 -0.1
0.4 1.2 -0.1
0.5 1.2 -0.1
0.6 1.2 -0.1
0.7 1.2 -0.1
0.8 1.2 -0.1
0.9 1.2 -0.1
1 1.2 -0.1
1.1 1.2 -0.1
1.2 1.2 -0.1
1.3 1.2 -0.1
1.4 1.2 -0.1
1.5 1.2 -0.1
1.6 1.2 -0.1
1.7 1.2 -0.1
1.8 1.2 -0.1
1.9 1.2 -0.1
-0.1 1.3 -0.1
0 1.3 -0.1
0.1 1.3 -0.1
0.2 1.3 -0.1
0.3 1.3 -0.1
0.4 1.3 -0.1
0.5 1.3 -0.1
0.6 1.3 -0.1
0.7 1.3 -0.1
0.8 1.3 -0.1
0.9 1.3 -0.1
1 1.3 -0.1
1.1 1.3 -0.1
1.2 1.3 -0.1
1.3 1.3 -0.1
1.4 1.3 -0.1
1.5 1.3 -0.1
1.6 1.3 -0.1
1.7 1.3 -0.1
1.8 1.3 -0.1
1.9 1.3 -0.1
-0.1 1.4 -0.1
0 1.4 -0.1
0.1 1.4 -0.1
0.2 1.4 -0.1
0.3 1.4 -0.1
0.4 1.4 -0.1
0.5 1.4 -0.1
0.6 1.4 -0.1
0.7 1.4 -0.1
0.8 1.4 -0.1
0.9 1.4 -0.1
1 1.4 -0.1
1.1 1.4 -0.1
1.2 1.4 -0.1
1.3 1.4 -0.1
1.4 1.4 -0.1
1.5 1.4 -0.1
1.6 1.4 -0.1
1.7 1.4 -0.1
1.8 1.4 -0.1
1.9 1.4 -0.1
-0.1 1.5 -0.1
0 1.5 -0.1
0.1 1.5 -0.1
0.2 1.5 -0.1
0.3 1.5 -0.1
0.4 1.5 -0.1
0.5 1.5 -0.1
0.6 1.5 -0.1
0.7 1.5 -0.1
0.8 1.5 -0.1
0.9 1.5 -0.1
1 1.5 -0.1
1.1 1.5 -0.1
1.2 1.5 -0.1
1.3 1.5 -0.1
1.4 1.5 -0.1
1.5 1.5 -0.1
1.6 1.5 -0.1
1.7 1.5 -0.1
1.8 1.5 -0.1
1.9 1.5 -0.1
-0.1 1.6 -0.1
0 1.6 -0.1
0.1 1.6 -0.1
0.2 1.6 -0.1
0.3 1.6 -0.1
0.4 1.6 -0.1
0.5 1.6 -0.1
0.6 1.6 -0.1
0.7 1.6 -0.1
0.8 1.6 -0.1
0.9 1.6 -0.1
1 1.6 -0.1
1.1 1.6 -0.1
1.2 1.6 -0.1
1.3 1.6 -0.1
1.4 1.6 -0.1
1.5 1.6 -0.1
1.6 1.6 -0.1
1.7 1.6 -0.1
1.8 1.6 -0.1
1.9 1.6 -0.1
-0.1 1.7 -0.1
0 1.7 -0.1
0.1 1.7 -0.1
0.2 1.7 -0.1
0.3 1.7 -0.1
0.4 1.7 -0.1
0.5 1.7 -0.1
0.6 1.7 -0.1
0.7 1.7 -0.1
0.8 1.7 -0.1
0.9 1.7 -0.1
1 1.7 -0.1
1.1 1.7 -0.1
1.2 1.7 -0.1
1.3 1.7 -0.1
1.4 1.7 -0.1
1.5 1.7 -0.1
1.6 1.7 -0.1
1.7 1.7 -0.1
1.8 1.7 -0.1
1.9 1.7 -0.1
-0.1 1.8 -0.1
0 1.8 -0.1
0.1 1.8 -0.1
0.2 1.8 -0.1
0.3 1.8 -0.1
0.4 1.8 -0.1
0.5 1.8 -0.1
0.6 1.8 -0.1
0.7 1.8 -0.1
0.8 1.8 -0.1
0.9 1.8 -0.1
1 1.8 -0.1
1.1 1.8 -0.1
1.2 1.8 -0.1
1.3 1.8 -0.1
1.4 1.8 -0.1
1.5 1.8 -0.1
1.6 1.8 -0.1
1.7 1.8 -0.1
1.8 1.8 -0.1
1.9 1.8 -0.1
-0.1 1.9 -0.1
0 1.9 -0.1
0.1 1.9 -0.1
0.2 1.9 -0.1
0.3 1.9 -0.1
0.4 1.9 -0.1
0.5 1.9 -0.1
0.6 1.9 -0.1
0.7 1.9 -0.1
0.8 1.9 -0.1
0.9 1.9 -0.1
1 1.9 -0.1
1.1 1.9 -0.1
1.2 1.9 -0.1
1.3 1.9 -0.1
1.4 1.9 -0.1
1.5 1.9 -0.1
1.6 1.9 -0.1
1.7 1.9 -0.1
1.8 1.9 -0.1
1.9 1.9 -0.1
-0.1 -0.1 0
0 -0.1 0
0.1 -0.1 0
0.2 -0.1 0
0.3 -0.1 0
0.4 -0.1 0
0.5 -0.1 0
0.6 -0.1 0
0.7 -0.1 0
0.8 -0.1 0
0.9 -0.1 0
1 -0.1 0
1.1 -0.1 0
1.2 -0.1 0
1.3 -0.1 0
1.4 -0.1 0
1.5 -0.1 0
1.6 -0.1 0
1.7 -0.1 0
1.8 -0.1 0
1.9 -0.1 0
-0.1 0 0
0 0 0
0.1 0 0
0.2 0 0
0.3 0 0
0.4 0 0
0.5 0 0
0.6 0 0
0.7 0 0
0.8 0 0
0.9 0 0
1 0 0
1.1 0 0
1.2 0 0
1.3 0 0
1.4 0 0
1.5 0 0
1.6 0 0
1.7 0 0
1.8 0 0
1.9 0 0
-0.1 0.1 0
0 0.1 0
0.1 0.1 0
0.2 0.1 0
0.3 0.1 0
0.4 0.1 0
0.5 0.1 0
0.6 0.1 0
0.7 0.1 0
0.8 0.1 0
0.9 0.1 0
1 0.1 0
1.1 0.1 0
1.2 0.1 0
1.3 0.1 0
1.4 0.1 0
1.5 0.1 0
1.6 0.1 0
1.7 0.1 0
1.8 0.1 0
1.9 0.1 0
-0.1 0.2 0
0 0.2 0
0.1 0.2 0
0.2 0.2 0
0.3 0.2 0
0.4 0.2 0
0.5 0.2 0
0.6 0.2 0
0.7 0.2 0
0.8 0.2 0
0.9 0.2 0
1 0.2 0
1.1 0.2 0
1.2 0.2 0
1.3 0.2 0
1.4 0.2 0
1.5 0.2 0
1.6 0.2 0
1.7 0.2 0
1.8 0.2 0
1.9 0.2 0
-0.1 0.3 0
0 0.3 0
0.1 0.3 0
0.2 0.3 0
0.3 0.3 0
0.4 0.3 0
0.5 0.3 0
0.6 0.3 0
0.7 0.3 0
0.8 0.3 0
0.9 0.3 0
1 0.3 0
1.1 0.3 0
1.2 0.3 0
1.3 0.3 0
1.4 0.3 0
1.5 0.3 0
1.6 0.3 0
1.7 0.3 0
1.8 0.3 0
1.9 0.3 0
-0.1 0.4 0
0 0.4 0
0.1 0.4 0
0.2 0.4 0
0.3 0.4 0
0.4 0.4 0
0.5 0.4 0
0.6 0.4 0
0.7 0.4 0
0.8 0.4 0
0.9 0.4 0
1 0.4 0
1.1 0.4 0
1.2 0.4 0
1.3 0.4 0
1.4 0.4 0
1.5 0.4 0
1.6 0.4 0
1.7 0.4 0
1.8 0.4 0
1.9 0.4 0
-0.1 0.5 0
0 0.5 0
0.1 0.5 0
0.2 0.5 0
0.3 0.5 0
0.4 0.5 0
0.5 0.5 0
0.6 0.5 0
0.7 0.5 0
0.8 0.5 0
0.9 0.5 0
1 0.5 0
1.1 0.5 0
1.2 0.5 0
1.3 0.5 0
1.4 0.5 0
1.5 0.5 0
1.6 0.5 0
1.7 0.5 0
1.8 0.5 0
1.9 0.5 0
-0.1 0.6 0
0 0.6 0
0.1 0.6 0
0.2 0.6 0
0.3 0.6 0
0.4 0.6 0
0.5 0.6 0
0.6 0.6 0
0.7 0.6 0
0.8 0.6 0
0.9 0.6 0
1 0.6 0
1.1 0.6 0
1.2 0.6 0
1.3 0.6 0
1.4 0.6 0
1.5 0.6 0
1.6 0.6 0
1.7 0.6 0
1.8 0.6 0
1.9 0.6 0
-0.1 0.7 0
0 0.7 0
0.1 0.7 0
0.2 0.7 0
0.3 0.7 0
0.4 0.7 0
0.5 0.7 0
0.6 0.7 0
0.7 0.7 0
0.8 0.7 0
0.9 0.7 0
1 0.7 0
1.1 0.7 0
1.2 0.7 0
1.3 0.7 0
1.4 0.7 0
1.5 0.7 0
1.6 0.7 0
1.7 0.7 0
1.8 0.7 0
1.9 0.7 0
-0.1 0.8 0
0 0.8 0
0.1 0.8 0
0.2 0.8 0
0.3 0.8 0
0.4 0.8 0
0.5 0.8 0
0.6 0.8 0
0.7 0.8 0
0.8 0.8 0
0.9 0.8 0
1 0.8 0
1.1 0.8 0
1.2 0.8 0
1.3 0.8 0
1.4 0.8 0
1.5 0.8 0
1.6 0.8 0
1.7 0.8 0
1.8 0.8 0
1.9 0.8 0
-0.1 0.9 0
0 0.9 0
0.1 0.9 0
0.2 0.9 0
0.3 0.9 0
0.4 0.9 0
0.5 0.9 0
0.6 0.9 0
0.7 0.9 0
0.8 0.9 0
0.9 0.9 0
1 0.9 0
1.1 0.9 0
1.2 0.9 0
1.3 0.9 0
1.4 0.9 0
1.5 0.9 0
1.6 0.9 0
1.7 0.9 0
1.8 0.9 0
1.9 0.9 0
-0.1 1 0
0 1 0
0.1 1 0
0.2 1 0
0.3 1 0
0.4 1 0
0.5 1 0
0.6 1 0
0.7 1 0
0.8 1 0
0.9 1 0
1 1 0
1.1 1 0
1.2 1 0
1.3 1 0
1.4 1 0
1.5 1 0
1.6 1 0
1.7 1 0
1.8 1 0
1.9 1 0
-0.1 1.1 0
0 1.1 0
0.1 1.1 0
0.2 1.1 0
0.3 1.1 0
0.4 1.1 0
0.5 1.1 0
0.6 1.1 0
0.7 1.1 0
0.8 1.1 0
0.9 1.1 0
1 1.1 0
1.1 1.1 0
1.2 1.1 0
1.3 1.1 0
1.4 1.1 0
1.5 1.1 0
1.6 1.1 0
1.7 1.1 0
1.8 1.1 0
1.9 1.1 0
-0.1 1.2 0
0 1.2 0
0.1 1.2 0
0.2 1.2 0
0.3 1.2 0
0.4 1.2 0
0.5 1.2 0
0.6 1.2 0
0.7 1.2 0
0.8 1.2 0
0.9 1.2 0
1 1.2 0
1.1 1.2 0
1.2 1.2 0
1.3 1.2 0
1.4 1.2 0
1.5 1.2 0
1.6 1.2 0
1.7 1.2 0
1.8 1.2 0
1.9 1.2 0
-0.1 1.3 0
0 1.3 0
0.1 1.3 0
0.2 1.3 0
0.3 1.3 0
0.4 1.3 0
0.5 1.3 0
0.6 1.3 0
0.7 1.3 0
0.8 1.3 0
0.9 1.3 0
1 1.3 0
1.1 1.3 0
1.2 1.3 0
1.3 1.3 0
1.4 1.3 0
1.5 1.3 0
1.6 1.3 0
1.7 1.3 0
1.8 1.3 0
1.9 1.3 0
-0.1 1.4 0
0 1.4 0
0.1 1.4 0
0.2 1.4 0
0.3 1.4 0
0.4 1.4 0
0.5 1.4 0
0.6 1.4 0
0.7 1.4 0
0.8 1.4 0
0.9 1.4 0
1 1.4 0
1.1 1.4 0
1.2 1.4 0
1.3 1.4 0
1.4 1.4 0
1.5 1.4 0
1.6 1.4 0
1.7 1.4 0
1.8 1.4 0
1.9 1.4 0
-0.1 1.5 0
0 1.5 0
0.1 1.5 0
0.2 1.5 0
0.3 1.5 0
0.4 1.5 0
0.5 1.5 0
0.6 1.5 0
0.7 1.5 0
0.8 1.5 0
0.9 1.5 0
1 1.5 0
1.1 1.5 0
1.2 1.5 0
1.3 1.5 0
1.4 1.5 0
1.5 1.5 0
1.6 1.5 0
1.7 1.5 0
1.8 1.5 0
1.9 1.5 0
-0.1 1.6 0
0 1.6 0
0.1 1.6 0
0.2 1.6 0
0.3 1.6 0
0.4 1.6 0
0.5 1.6 0
0.6 1.6 0
0.7 1.6 0
0.8 1.6 0
0.9 1.6 0
1 1.6 0
1.1 1.6 0
1.2 1.6 0
1.3 1.6 0
1.4 1.6 0
1.5 1.6 0
1.6 1.6 0
1.7 1.6 0
1.8 1.6 0
1.9 1.6 0
-0.1 1.7 0
0 1.7 0
0.1 1.7 0
0.2 1.7 0
0.3 1.7 0
0.4 1.7 0
0.5 1.7 0
0.6 1.7 0
0.7 1.7 0
0.8 1.7 0
0.9 1.7 0
1 1.7 0
1.1 1.7 0
1.2 1.7 0
1.3 1.7 0
1.4 1.7 0
1.5 1.7 0
1.6 1.7 0
1.7 1.7 0
1.8 1.7 0
1.9 1.7 0
-0.1 1.8 0
0 1.8 0
0.1 1.8 0
0.2 1.8 0
0.3 1.8 0
0.4 1.8 0
0.5 1.8 0
0.6 1.8 0
0.7 1.8 0
0.8 1.8 0
0.9 1.8 0
1 1.8 0
1.1 1.8 0
1.2 1.8 0
1.3 1.8 0
1.4 1.8 0
1.5 1.8 0
1.6 1.8 0
1.7 1.8 0
1.8 1.8 0
1.9 1.8 0
-0.1 1.9 0
0 1.9 0
0.1 1.9 0
0.2 1.9 0
0.3 1.9 0
0.4 1.9 0
0.5 1.9 0
0.6 1.9 0
0.7 1.9 0
0.8 1.9 0
0.9 1.9 0
1 1.9 0
1.1 1.9 0
1.2 1.9 0
1.3 1.9 0
1.4 1.9 0
1.5 1.9 0
1.6 1.9 0
1.7 1.9 0
1.8 1.9 0
[...]
CELL_DATA 4000
VECTORS velocity double 
-2.67598e-05 0.000281867 -0.000255107
-2.88268e-05 0.000335465 -0.000291773
-2.60696e-05 0.000342165 -0.000301006
-1.77527e-05 0.00034368 -0.000306324
-4.23633e-06 0.000344242 -0.000309413
1.30804e-05 0.000344694 -0.000311174
3.25756e-05 0.000345344 -0.000312067
5.25824e-05 0.000346193 -0.000312358
7.15617e-05 0.000347236 -0.000312107
8.80022e-05 0.000348419 -0.00031123
0.000100382 0.000349655 -0.000309659
0.000107265 0.000350864 -0.000307284
0.000107282 0.000351819 -0.000304136
9.95382e-05 0.00035227 -0.0003003
8.38487e-05 0.000352026 -0.000295802
6.05368e-05 0.000350774 -0.000290963
3.09168e-05 0.00034809 -0.000286097
-2.53475e-06 0.000343839 -0.000281322
-3.62818e-05 0.000336332 -0.000275192
-1.81409e-05 0.000291868 -0.000239181
-1.4237e-05 0.000814635 -0.000322592
-1.65716e-05 0.000968946 -0.000380619
-1.64938e-05 0.000987996 -0.000394676
-1.01985e-05 0.000992162 -0.000402145
2.88395e-06 0.000993322 -0.000406337
2.15865e-05 0.000994048 -0.000408544
4.40495e-05 0.000995112 -0.000409565
6.83266e-05 0.000996669 -0.000409767
9.24667e-05 0.000998776 -0.000409203
0.00011445 0.00100131 -0.000407829
0.000132243 0.00100407 -0.000405522
0.000143734 0.00100682 -0.000402155
0.000146889 0.00100903 -0.000397801
0.000140227 0.00101012 -0.000392504
0.000122883 0.00100945 -0.000386359
9.46067e-05 0.00100607 -0.000379869
5.67911e-05 0.000999335 -0.000373173
1.21972e-05 0.000988429 -0.000366625
-3.33443e-05 0.000966436 -0.000358315
-1.66722e-05 0.000822611 -0.000307706
1.07367e-07 0.00151682 -0.000390973
2.8458e-06 0.00182726 -0.000462932
3.0233e-06 0.00186579 -0.000480478
7.91553e-06 0.00187406 -0.000489867
1.96576e-05 0.00187626 -0.000495028
3.74799e-05 0.00187723 -0.000497674
5.9583e-05 0.0018784 -0.000498885
8.40422e-05 0.00188033 -0.000499023
0.000108771 0.00188312 -0.00049821
0.000131571 0.00188659 -0.000496431
0.000150228 0.0018905 -0.000493489
0.000162253 0.00189437 -0.000489294
0.000165285 0.00189741 -0.000483856
0.000157412 0.0018986 -0.000477244
0.000137125 0.00189676 -0.000469683
0.00010407 0.00189055 -0.000461504
5.93957e-05 0.00187897 -0.000453038
5.68081e-06 0.0018597 -0.000444878
-4.87554e-05 0.00181674 -0.000435148
-2.43777e-05 0.00151956 -0.000374812
1.64819e-05 0.00237331 -0.000477606
2.67068e-05 0.00290016 -0.000564771
2.79647e-05 0.00296701 -0.00058575
3.16869e-05 0.00298135 -0.00059709
4.18749e-05 0.0029852 -0.000603329
5.83291e-05 0.00298641 -0.000606626
7.95878e-05 0.0029875 -0.000608103
0.000103694 0.00298945 -0.000608233
0.000128374 0.0029924 -0.000607281
0.00015135 0.00299621 -0.000605137
0.000170122 0.00300063 -0.000601566
0.00018187 0.00300492 -0.000596532
0.000183759 0.00300796 -0.000590013
0.00017339 0.00300843 -0.000581941
0.000148842 0.00300471 -0.000572603
0.000109606 0.00299494 -0.000562435
5.60696e-05 0.00297722 -0.000552247
-8.56227e-06 0.00294793 -0.000542505
-7.18879e-05 0.00287653 -0.000531314
-3.5944e-05 0.00236837 -0.000459115
3.54596e-05 0.00338825 -0.000577829
5.5402e-05 0.0041969 -0.000681579
5.87056e-05 0.00430282 -0.000705777
6.12819e-05 0.00432558 -0.000719049
6.93933e-05 0.00433179 -0.000726548
8.38903e-05 0.00433341 -0.000730586
0.000103705 0.00433436 -0.000732347
0.000126792 0.00433597 -0.00073258
0.000150817 0.00433853 -0.000731573
0.000173428 0.0043421 -0.000729085
0.000191736 0.0043463 -0.000724992
0.000202527 0.00435014 -0.000719174
0.000202619 0.00435234 -0.000711464
0.000189093 0.00435132 -0.000701828
0.000159421 0.0043448 -0.000690713
0.000112525 0.00433044 -0.000678543
4.87552e-05 0.00430552 -0.000666323
-2.77946e-05 0.00426443 -0.000654927
-9.95898e-05 0.00415514 -0.000642529
-4.97949e-05 0.00337287 -0.000557048
5.74736e-05 0.00456975 -0.000687171
8.962e-05 0.00573078 -0.0008081
9.60059e-05 0.00588836 -0.000835076
9.73928e-05 0.00592225 -0.000850235
0.000102906 0.00593169 -0.000859043
0.000114807 0.0059341 -0.00086375
0.000132338 0.00593485 -0.000865896
0.0001535 0.00593575 -0.000866382
0.000176101 0.00593752 -0.000865363
0.000197539 0.0059403 -0.000862658
0.000214545 0.00594349 -0.000858195
0.000223637 0.00594613 -0.000851655
0.000221273 0.00594684 -0.000842784
0.000203719 0.00594347 -0.000831649
0.000167934 0.00593325 -0.000818788
0.000112228 0.00591323 -0.000804705
3.7023e-05 0.00587999 -0.000790434
-5.25724e-05 0.00582469 -0.000777485
-0.000132709 0.00566622 -0.00076412
-6.63544e-05 0.00454152 -0.000664337
8.28335e-05 0.00592333 -0.000801387
0.000129914 0.00751205 -0.000939183
0.000140486 0.00773539 -0.000968324
0.000140702 0.00778342 -0.000985137
0.000143174 0.00779704 -0.000995104
0.000151662 0.00780052 -0.00100053
0.00016588 0.00780096 -0.0010032
0.000184223 0.00780104 -0.00100399
0.000204499 0.00780177 -0.00100308
0.000223751 0.00780321 -0.00100041
0.000238601 0.00780493 -0.000995714
0.000245301 0.00780595 -0.000988559
0.000239615 0.00780458 -0.000978861
0.00021709 0.00779822 -0.000966554
0.000174089 0.0077836 -0.000951968
0.000108385 0.00775715 -0.000935884
2.03511e-05 0.00771444 -0.000919693
-8.34463e-05 0.00764229 -0.000905491
-0.000171759 0.00742173 -0.00089145
-8.58794e-05 0.00588126 -0.000776746
0.000111594 0.00744907 -0.000916351
0.000176376 0.00954448 -0.0010699
0.000192271 0.00984873 -0.00110032
0.000191378 0.00991384 -0.00111837
0.000190261 0.00993236 -0.00112935
0.000194424 0.00993709 -0.00113555
0.000204508 0.00993737 -0.00113874
0.000219168 0.00993666 -0.00113988
0.00023608 0.00993619 -0.00113932
0.000252305 0.00993618 -0.00113689
0.000264298 0.00993637 -0.0011322
0.00026785 0.00993568 -0.00112477
0.000258018 0.00993208 -0.00111455
0.000229669 0.00992269 -0.0011013
0.000178447 0.00990366 -0.0010853
0.000101466 0.00987048 -0.00106754
-8.78296e-07 0.00981756 -0.0010497
-0.000120067 0.00972585 -0.00103443
-0.000216319 0.00942863 -0.00102017
-0.000108159 0.00739394 -0.000890687
0.000143414 0.0091413 -0.00102857
0.000228318 0.0118245 -0.00119614
0.000250486 0.0122253 -0.00122671
0.000248435 0.01231 -0.00124542
0.000243197 0.0123338 -0.00125716
0.000242447 0.0123399 -0.00126395
0.000247699 0.0123402 -0.00126763
0.000257844 0.0123387 -0.00126927
0.000270677 0.0123372 -0.00126924
0.000283327 0.0123361 -0.00126721
0.000291957 0.0123351 -0.00126287
0.000291819 0.0123331 -0.00125573
0.000277443 0.0123281 -0.00124534
0.000242798 0.0123165 -0.0012316
0.000182533 0.0122938 -0.00121483
9.31191e-05 0.0122546 -0.00119591
-2.49657e-05 0.0121916 -0.0011768
-0.000160971 0.0120778 -0.00116079
-0.000265523 0.0116878 -0.00114688
-0.000132761 0.0090764 -0.00100317
0.000177322 0.0109907 -0.0011364
0.00028394 0.0143433 -0.00131594
0.000312844 0.014856 -0.00134529
0.000309504 0.0149622 -0.00136383
0.000299779 0.014991 -0.00137586
0.000293689 0.0149981 -0.00138303
0.000293613 0.0149981 -0.00138719
0.000298815 0.0149961 -0.00138941
0.000307319 0.0149939 -0.00139001
0.000316194 0.0149924 -0.00138872
0.000321438 0.0149911 -0.00138506
0.000317895 0.0149891 -0.00137869
0.000299199 0.0149842 -0.00136895
0.00025836 0.0149724 -0.00135558
0.000188951 0.0149485 -0.00133869
8.65403e-05 0.0149056 -0.00131921
-4.86312e-05 0.0148341 -0.00129946
-0.000203252 0.0146963 -0.00128349
-0.000317183 0.0141963 -0.00127024
-0.000158591 0.0109232 -0.00111249
0.000211705 0.0129897 -0.00124183
0.00034008 0.0170926 -0.0014317
0.000375278 0.0177315 -0.00145834
0.000370155 0.0178591 -0.00147567
0.000355596 0.0178913 -0.00148746
0.000343916 0.0178985 -0.00149479
0.000338484 0.017898 -0.00149924
0.000338943 0.0178956 -0.00150196
0.000343558 0.0178934 -0.00150321
0.000349177 0.0178924 -0.00150305
0.000351833 0.0178923 -0.00150065
0.000345947 0.0178924 -0.00149553
0.000324317 0.0178903 -0.00148712
0.00027881 0.017882 -0.00147495
0.00020155 0.0178613 -0.00145894
8.645e-05 0.0178196 -0.00143994
-6.66045e-05 0.0177434 -0.0014204
-0.000241695 0.0175813 -0.00140504
-0.000366866 0.0169538 -0.00139307
-0.000183433 0.0129304 -0.00122123
0.000243974 0.0151432 -0.00135366
0.000391471 0.0200762 -0.00155398
0.000430909 0.0208526 -0.00157645
0.000422799 0.0209992 -0.00159152
0.000403025 0.0210317 -0.00160236
0.000386061 0.0210371 -0.00160927
0.000375997 0.0210355 -0.00161372
0.000372637 0.0210327 -0.00161698
0.000374411 0.0210311 -0.00161893
0.000378297 0.0210314 -0.00161984
0.00038027 0.0210342 -0.00161903
0.000374525 0.0210389 -0.00161577
0.000353094 0.0210437 -0.00160948
0.000306551 0.0210444 -0.00159945
0.00022486 0.0210339 -0.00158549
9.95914e-05 0.0210015 -0.00156827
-7.09272e-05 0.0209284 -0.00155011
-0.000268392 0.020745 -0.00153605
-0.00040867 0.0199724 -0.00152578
-0.000204335 0.0151063 -0.0013384
0.000269976 0.0174864 -0.00149256
0.000429747 0.0233309 -0.00170727
0.000468717 0.0242513 -0.00172453
0.000455469 0.0244103 -0.00173618
0.000430317 0.0244376 -0.00174508
0.000408942 0.0244385 -0.00175103
0.000395588 0.0244344 -0.00175514
0.000390209 0.0244308 -0.00175861
0.000391086 0.0244299 -0.00176139
0.000395687 0.0244324 -0.00176348
0.000400252 0.0244395 -0.0017643
0.000398896 0.0244516 -0.0017633
0.000383113 0.0244674 -0.0017598
0.000342062 0.0244838 -0.00175299
0.000262951 0.0244933 -0.00174232
0.000133708 0.0244828 -0.00172826
-5.08776e-05 0.0244263 -0.00171297
-0.000272301 0.0242297 -0.00170154
-0.000433793 0.0232973 -0.0016927
-0.000216896 0.0174891 -0.00148395
0.000283346 0.0201185 -0.00169999
0.000441669 0.0269632 -0.00194079
0.000471345 0.0280257 -0.00195278
0.000449571 0.0281845 -0.00195972
0.000419067 0.0281982 -0.00196556
0.000394945 0.0281902 -0.00197
0.000380622 0.0281818 -0.00197349
0.000375846 0.0281768 -0.00197659
0.000378906 0.028176 -0.00197987
0.000387773 0.0281808 -0.00198301
0.000399385 0.0281929 -0.00198543
0.000408235 0.0282138 -0.00198685
0.000406092 0.0282445 -0.00198645
0.000380889 0.0282835 -0.00198348
0.000316667 0.0283244 -0.00197736
0.000195677 0.0283527 -0.00196808
5.97308e-06 0.0283343 -0.00195726
-0.000237888 0.0281429 -0.00194953
-0.000428887 0.0270427 -0.00194153
-0.000214444 0.0201775 -0.00169888
0.000273144 0.0232638 -0.00205804
0.000404759 0.0312172 -0.00235184
0.000410567 0.0324053 -0.00235973
0.000375541 0.0325426 -0.00236067
0.000340296 0.0325311 -0.00236255
0.000316587 0.032509 -0.00236441
0.000305237 0.032494 -0.00236665
0.000304888 0.032486 -0.00236929
0.000314095 0.0324845 -0.00237256
0.000331672 0.0324905 -0.0023761
0.000355536 0.0325066 -0.00237972
0.000381748 0.0325361 -0.00238319
0.000403327 0.0325827 -0.00238577
0.000408217 0.0326485 -0.00238693
0.000377734 0.0327313 -0.00238608
0.000287142 0.0328183 -0.00238291
0.000112194 0.0328684 -0.00237834
-0.000144799 0.0327168 -0.0023755
-0.000375334 0.0314561 -0.00236667
-0.000187667 0.0233899 -0.00206366
0.000217861 0.0273998 -0.00273691
0.000278601 0.0366129 -0.00313992
0.000238386 0.0378853 -0.0031467
0.000184776 0.0379684 -0.00314049
0.00014758 0.0379172 -0.00313748
0.000129812 0.0378759 -0.003136
0.000127534 0.037852 -0.00313608
0.000137489 0.0378394 -0.00313758
0.000158372 0.0378353 -0.00314009
0.000189869 0.0378402 -0.00314343
0.000231664 0.0378572 -0.00314754
0.000282608 0.0378917 -0.00315215
0.000338708 0.0379504 -0.00315704
0.000390595 0.0380412 -0.00316189
0.000419833 0.0381699 -0.00316617
0.00039514 0.0383324 -0.00316963
0.000274813 0.0384883 -0.00317269
3.25363e-05 0.038434 -0.00317625
-0.000243599 0.0370531 -0.00316357
-0.000121799 0.0275892 -0.00274523
7.12058e-05 0.0335571 -0.0041164
-1.50499e-05 0.0442583 -0.00474493
-0.000131959 0.0455289 -0.00475699
-0.000206818 0.0455132 -0.00474279
-0.000237351 0.0454091 -0.00473326
-0.000238152 0.0453453 -0.00472778
-0.000220792 0.045311 -0.00472527
-0.000190807 0.045292 -0.00472479
-0.000149706 0.0452828 -0.00472579
-9.68055e-05 0.0452831 -0.00472808
-3.01276e-05 0.0452962 -0.00473157
5.26544e-05 0.0453284 -0.00473621
0.000153025 0.0453895 -0.0047421
0.000268725 0.0454934 -0.00474919
0.000387974 0.0456575 -0.0047575
0.000480063 0.0458959 -0.00476703
0.000485958 0.0461882 -0.0047778
0.000329017 0.046313 -0.00478846
2.31232e-05 0.0449179 -0.00476707
1.15616e-05 0.0337761 -0.00412077
-0.000279072 0.0440102 -0.00705128
-0.000641684 0.056517 -0.00813174
-0.000865992 0.0576259 -0.00815954
-0.000948761 0.057466 -0.00813813
-0.000947582 0.0573062 -0.00812166
-0.000905556 0.0572223 -0.00811144
-0.000844418 0.0571779 -0.00810561
-0.000772522 0.0571515 -0.00810251
-0.000691819 0.0571352 -0.00810136
-0.000600769 0.0571277 -0.00810179
-0.000495537 0.0571318 -0.00810375
-0.000370029 0.0571532 -0.00810737
-0.000215993 0.0572025 -0.00811288
-2.40635e-05 0.0572971 -0.00812064
0.000211284 0.0574646 -0.00813101
0.000479249 0.0577436 -0.00814433
0.000724693 0.0581593 -0.00816064
0.000812013 0.0585367 -0.00817689
0.000571591 0.0573452 -0.00813913
0.000285796 0.0441902 -0.00704743
-0.00112664 0.0617292 -0.0113218
-0.00194013 0.0758761 -0.0128995
-0.00223717 0.076585 -0.0129477
-0.00223901 0.0762918 -0.0129237
-0.00211723 0.0761062 -0.0129017
-0.00195361 0.0760172 -0.012887
-0.00178015 0.0759696 -0.0128778
-0.00160738 0.0759395 -0.012872
-0.00143723 0.0759186 -0.0128688
-0.00126739 0.075905 -0.0128675
-0.00109276 0.0759 -0.0128682
-0.000904566 0.0759075 -0.0128708
-0.000688654 0.0759351 -0.0128759
-0.000423057 0.0759974 -0.0128842
-7.55572e-05 0.0761218 -0.0128963
0.000392346 0.0763577 -0.0129123
0.00099717 0.0767774 -0.0129311
0.00162829 0.0773375 -0.0129457
0.00181217 0.0766519 -0.0128892
0.000906087 0.0618239 -0.0113208
-0.00294864 0.0308646 0.0427615
-0.00392758 0.037938 0.0472396
-0.00381616 0.0382925 0.0472796
-0.0033778 0.0381459 0.0472844
-0.00290321 0.0380531 0.0473056
-0.00247439 0.0380086 0.0473225
-0.00210446 0.0379848 0.0473334
-0.00178756 0.0379698 0.0473401
-0.00151386 0.0379593 0.0473439
-0.00127319 0.0379525 0.0473454
-0.00105544 0.03795 0.0473447
-0.00084904 0.0379537 0.0473412
-0.000638025 0.0379675 0.0473339
-0.000396841 0.0379987 0.0473212
-7.9706e-05 0.0380609 0.047301
0.000401222 0.0381789 0.0472716
0.00121002 0.0383887 0.0472374
0.00256825 0.0386687 0.0472234
0.00415181 0.0383259 0.0471826
0.00207591 0.030912 0.0427403
-3.25449e-05 0.000286352 -0.000581442
-4.3966e-05 0.000342591 -0.000695229
-4.67935e-05 0.00034774 -0.000720862
-4.06165e-05 0.000348176 -0.000734494
-2.65359e-05 0.000348164 -0.000742671
-6.4274e-06 0.00034848 -0.000747649
1.76388e-05 0.000349212 -0.00075065
4.36842e-05 0.0003503 -0.000752229
6.98924e-05 0.000351753 -0.000752363
9.43543e-05 0.000353463 -0.000750919
0.00011517 0.000355371 -0.000747612
0.000130354 0.000357383 -0.000742148
0.000137951 0.000359204 -0.000734556
0.000136554 0.000360598 -0.000724858
0.000125187 0.000361289 -0.000713369
0.000103637 0.000360772 -0.000700777
7.30657e-05 0.000358794 -0.000687779
3.61481e-05 0.00035491 -0.000674718
-3.79129e-06 0.000346681 -0.000657939
-1.89564e-06 0.000294394 -0.000558435
-2.50576e-05 0.0008471 -0.000786529
-3.95445e-05 0.0010226 -0.000966646
-4.69187e-05 0.0010408 -0.00100693
-4.39978e-05 0.00104285 -0.00102671
-3.08313e-05 0.00104275 -0.00103791
-9.12123e-06 0.001043 -0.00104434
1.89301e-05 0.00104405 -0.00104797
5.11509e-05 0.00104604 -0.00104955
8.5239e-05 0.00104895 -0.00104918
0.000118768 0.00105259 -0.00104668
0.000149199 0.00105684 -0.00104161
0.00017363 0.00106139 -0.0010337
0.000189207 0.00106563 -0.00102286
0.000193518 0.0010689 -0.00100911
0.00018442 0.0010703 -0.000992943
0.000161053 0.00106883 -0.000975128
0.00012398 0.00106363 -0.000956377
7.56252e-05 0.00105314 -0.000937185
2.05781e-05 0.00102772 -0.000910961
1.02891e-05 0.000855464 -0.000758776
-1.21251e-05 0.00162035 -0.000985922
-2.23092e-05 0.00199141 -0.00121484
-2.97349e-05 0.00203332 -0.00126685
-2.78231e-05 0.00203915 -0.00129199
-1.54135e-05 0.00203946 -0.00130581
6.03989e-06 0.00203944 -0.0013135
3.45398e-05 0.00204044 -0.0013176
6.79076e-05 0.00204292 -0.00131905
0.000103718 0.00204679 -0.00131818
0.000139491 0.00205192 -0.00131469
0.000172432 0.00205813 -0.00130808
0.000199258 0.00206478 -0.00129807
0.00021665 0.00207097 -0.00128442
0.000221516 0.00207559 -0.00126714
0.000211157 0.00207714 -0.00124674
0.000184167 0.00207395 -0.00122399
0.000140397 0.00206409 -0.00119993
8.14788e-05 0.00204428 -0.00117537
1.41181e-05 0.00199189 -0.00114171
7.05906e-06 0.00162607 -0.000950994
4.2055e-06 0.00260202 -0.00123469
1.38953e-06 0.00325648 -0.00151897
-4.51559e-06 0.00333617 -0.00158329
-2.91427e-06 0.00334878 -0.00161421
8.85335e-06 0.00335021 -0.0016311
3.00205e-05 0.00334994 -0.00164038
5.88544e-05 0.00335069 -0.00164506
9.30305e-05 0.00335315 -0.00164656
0.000130109 0.00335734 -0.00164528
0.000167547 0.00336329 -0.00164084
0.000202158 0.00337064 -0.00163271
0.000230309 0.00337853 -0.00162045
0.00024825 0.00338579 -0.00160372
0.000252186 0.00339085 -0.0015824
0.000238717 0.00339148 -0.00155716
0.000205635 0.00338529 -0.00152887
0.000152112 0.00336923 -0.00149895
7.97369e-05 0.0033374 -0.00146826
-8.7703e-07 0.00324557 -0.00142678
-4.38515e-07 0.00260149 -0.00119137
2.41388e-05 0.00380576 -0.00152284
3.16966e-05 0.00484391 -0.00186883
2.8703e-05 0.00497922 -0.00194587
3.01676e-05 0.00500234 -0.00198292
4.09962e-05 0.00500595 -0.00200323
6.15028e-05 0.00500583 -0.00201421
9.0091e-05 0.00500614 -0.00201964
0.000124434 0.00500805 -0.0020214
0.000162219 0.00501192 -0.00201984
0.000200666 0.00501787 -0.00201453
0.000236278 0.00502534 -0.00200499
0.00026511 0.0050334 -0.00199048
0.000282862 0.00504063 -0.00197051
0.000284921 0.00504497 -0.0019449
0.000267161 0.00504335 -0.0019145
0.000226394 0.00503258 -0.00188038
0.00016118 0.00500852 -0.00184409
7.32965e-05 0.00496129 -0.00180698
-2.11979e-05 0.00481413 -0.00175748
-1.0599e-05 0.00379489 -0.00147118
4.83431e-05 0.00524869 -0.00183931
6.97176e-05 0.00678349 -0.00225116
7.10778e-05 0.00699599 -0.00234083
7.26247e-05 0.00703436 -0.00238409
8.2285e-05 0.00704169 -0.00240784
0.00010144 0.00704213 -0.00242061
0.000128807 0.00704183 -0.00242701
0.000162357 0.00704276 -0.00242919
0.000199836 0.00704571 -0.00242754
0.000238182 0.00705072 -0.00242169
0.000273738 0.00705728 -0.00241095
0.000302252 0.00706446 -0.00239432
0.000318817 0.00707041 -0.00237125
0.000317797 0.00707255 -0.00234167
0.000294325 0.00706736 -0.00230602
0.000244324 0.00705051 -0.00226565
0.000165602 0.0070164 -0.00222268
6.02699e-05 0.00694933 -0.00217925
-4.86985e-05 0.00672731 -0.00212169
-2.43492e-05 0.00522386 -0.00177973
7.74804e-05 0.00694453 -0.00217313
0.000116474 0.00910089 -0.0026525
0.000123894 0.00941583 -0.0027541
0.000125961 0.00947503 -0.00280318
0.000134065 0.00948771 -0.00283023
0.000150956 0.00948911 -0.00284489
0.000176025 0.00948819 -0.00285245
0.000207648 0.00948796 -0.00285522
0.000243492 0.00948942 -0.00285381
0.000280405 0.00949271 -0.00284785
0.000314681 0.00949753 -0.00283627
0.000341534 0.00950285 -0.0028181
0.000355467 0.00950648 -0.00279241
0.00035015 0.00950532 -0.002759
0.000319533 0.00949516 -0.00271832
0.00025847 0.00947056 -0.00267189
0.000164014 0.00942418 -0.00262237
3.92573e-05 0.00933236 -0.00257256
-8.45558e-05 0.00901226 -0.00250703
-4.22779e-05 0.0069032 -0.00210672
0.000111843 0.00889989 -0.00251295
0.000172513 0.011813 -0.00305891
0.000187871 0.0122589 -0.00317095
0.000190861 0.012345 -0.00322505
0.000196908 0.0123646 -0.00325512
0.000210681 0.0123676 -0.00327162
0.000232484 0.0123663 -0.00328029
0.000260886 0.0123647 -0.00328395
0.00029366 0.0123644 -0.00328324
0.000327823 0.0123656 -0.00327763
0.000359505 0.0123683 -0.00326581
0.000383378 0.012371 -0.00324693
0.000393332 0.0123717 -0.00321957
0.000382206 0.0123666 -0.00318316
0.000342737 0.0123505 -0.00313814
0.000268681 0.0123169 -0.00308623
0.000156396 0.0122564 -0.0030305
1.00296e-05 0.0121342 -0.00297462
-0.000129124 0.0116891 -0.00290153
-6.45622e-05 0.00884127 -0.00244163
0.000151175 0.0111124 -0.00284806
0.000237401 0.0149256 -0.00345732
0.000262436 0.0155334 -0.00357748
0.000266683 0.0156526 -0.00363528
0.000270338 0.0156807 -0.00366763
0.00028032 0.0156857 -0.00368563
0.000297823 0.0156842 -0.00369546
0.000321793 0.0156815 -0.00370022
0.000350395 0.0156794 -0.00370054
0.00038061 0.0156786 -0.00369596
0.000408395 0.0156791 -0.00368496
0.000428215 0.0156794 -0.00366638
0.000433117 0.0156772 -0.00363856
0.00041485 0.0156681 -0.00360066
0.000365082 0.0156461 -0.00355273