# vtk DataFile Version 2.0 
Visualization 
ASCII 
DATASET STRUCTURED_GRID 
DIMENSIONS 21 21 11
POINTS 4851 float
-0.1 -0.1 0.9
0 -0.1 0.9
0.1 -0.1 0.9
0.2 -0.1 0.9
0.3 -0.1 0.9
0.4 -0.1 0.9
0.5 -0.1 0.9
0.6 -0.1 0.9
0.7 -0.1 0.9
0.8 -0.1 0.9
0.9 -0.1 0.9
1 -0.1 0.9
1.1 -0.1 0.9
1.2 -0.1 0.9
1.3 -0.1 0.9
1.4 -0.1 0.9
1.5 -0.1 0.9
1.6 -0.1 0.9
1.7 -0.1 0.9
1.8 -0.1 0.9
1.9 -0.1 0.9
-0.1 0 0.9
0 0 0.9
0.1 0 0.9
0.2 0 0.9
0.3 0 0.9
0.4 0 0.9
0.5 0 0.9
0.6 0 0.9
0.7 0 0.9
0.8 0 0.9
0.9 0 0.9
1 0 0.9
1.1 0 0.9
1.2 0 0.9
1.3 0 0.9
1.4 0 0.9
1.5 0 0.9
1.6 0 0.9
1.7 0 0.9
1.8 0 0.9
1.9 0 0.9
-0.1 0.1 0.9
0 0.1 0.9
0.1 0.1 0.9
0.2 0.1 0.9
0.3 0.1 0.9
0.4 0.1 0.9
0.5 0.1 0.9
0.6 0.1 0.9
0.7 0.1 0.9
0.8 0.1 0.9
0.9 0.1 0.9
1 0.1 0.9
1.1 0.1 0.9
1.2 0.1 0.9
1.3 0.1 0.9
1.4 0.1 0.9
1.5 0.1 0.9
1.6 0.1 0.9
1.7 0.1 0.9
1.8 0.1 0.9
1.9 0.1 0.9
-0.1 0.2 0.9
0 0.2 0.9
0.1 0.2 0.9
0.2 0.2 0.9
0.3 0.2 0.9
0.4 0.2 0.9
0.5 0.2 0.9
0.6 0.2 0.9
0.7 0.2 0.9
0.8 0.2 0.9
0.9 0.2 0.9
1 0.2 0.9
1.1 0.2 0.9
1.2 0.2 0.9
1.3 0.2 0.9
1.4 0.2 0.9
1.5 0.2 0.9
1.6 0.2 0.9
1.7 0.2 0.9
1.8 0.2 0.9
1.9 0.2 0.9
-0.1 0.3 0.9
0 0.3 0.9
0.1 0.3 0.9
0.2 0.3 0.9
0.3 0.3 0.9
0.4 0.3 0.9
0.5 0.3 0.9
0.6 0.3 0.9
0.7 0.3 0.9
0.8 0.3 0.9
0.9 0.3 0.9
1 0.3 0.9
1.1 0.3 0.9
1.2 0.3 0.9
1.3 0.3 0.9
1.4 0.3 0.9
1.5 0.3 0.9
1.6 0.3 0.9
1.7 0.3 0.9
1.8 0.3 0.9
1.9 0.3 0.9
-0.1 0.4 0.9
0 0.4 0.9
0.1 0.4 0.9
0.2 0.4 0.9
0.3 0.4 0.9
0.4 0.4 0.9
0.5 0.4 0.9
0.6 0.4 0.9
0.7 0.4 0.9
0.8 0.4 0.9
0.9 0.4 0.9
1 0.4 0.9
1.1 0.4 0.9
1.2 0.4 0.9
1.3 0.4 0.9
1.4 0.4 0.9
1.5 0.4 0.9
1.6 0.4 0.9
1.7 0.4 0.9
1.8 0.4 0.9
1.9 0.4 0.9
-0.1 0.5 0.9
0 0.5 0.9
0.1 0.5 0.9
0.2 0.5 0.9
0.3 0.5 0.9
0.4 0.5 0.9
0.5 0.5 0.9
0.6 0.5 0.9
0.7 0.5 0.9
0.8 0.5 0.9
0.9 0.5 0.9
1 0.5 0.9
1.1 0.5 0.9
1.2 0.5 0.9
1.3 0.5 0.9
1.4 0.5 0.9
1.5 0.5 0.9
1.6 0.5 0.9
1.7 0.5 0.9
1.8 0.5 0.9
1.9 0.5 0.9
-0.1 0.6 0.9
0 0.6 0.9
0.1 0.6 0.9
0.2 0.6 0.9
0.3 0.6 0.9
0.4 0.6 0.9
0.5 0.6 0.9
0.6 0.6 0.9
0.7 0.6 0.9
0.8 0.6 0.9
0.9 0.6 0.9
1 0.6 0.9
1.1 0.6 0.9
1.2 0.6 0.9
1.3 0.6 0.9
1.4 0.6 0.9
1.5 0.6 0.9
1.6 0.6 0.9
1.7 0.6 0.9
1.8 0.6 0.9
1.9 0.6 0.9
-0.1 0.7 0.9
0 0.7 0.9
0.1 0.7 0.9
0.2 0.7 0.9
0.3 0.7 0.9
0.4 0.7 0.9
0.5 0.7 0.9
0.6 0.7 0.9
0.7 0.7 0.9
0.8 0.7 0.9
0.9 0.7 0.9
1 0.7 0.9
1.1 0.7 0.9
1.2 0.7 0.9
1.3 0.7 0.9
1.4 0.7 0.9
1.5 0.7 0.9
1.6 0.7 0.9
1.7 0.7 0.9
1.8 0.7 0.9
1.9 0.7 0.9
-0.1 0.8 0.9
0 0.8 0.9
0.1 0.8 0.9
0.2 0.8 0.9
0.3 0.8 0.9
0.4 0.8 0.9
0.5 0.8 0.9
0.6 0.8 0.9
0.7 0.8 0.9
0.8 0.8 0.9
0.9 0.8 0.9
1 0.8 0.9
1.1 0.8 0.9
1.2 0.8 0.9
1.3 0.8 0.9
1.4 0.8 0.9
1.5 0.8 0.9
1.6 0.8 0.9
1.7 0.8 0.9
1.8 0.8 0.9
1.9 0.8 0.9
-0.1 0.9 0.9
0 0.9 0.9
0.1 0.9 0.9
0.2 0.9 0.9
0.3 0.9 0.9
0.4 0.9 0.9
0.5 0.9 0.9
0.6 0.9 0.9
0.7 0.9 0.9
0.8 0.9 0.9
0.9 0.9 0.9
1 0.9 0.9
1.1 0.9 0.9
1.2 0.9 0.9
1.3 0.9 0.9
1.4 0.9 0.9
1.5 0.9 0.9
1.6 0.9 0.9
1.7 0.9 0.9
1.8 0.9 0.9
1.9 0.9 0.9
-0.1 1 0.9
0 1 0.9
0.1 1 0.9
0.2 1 0.9
0.3 1 0.9
0.4 1 0.9
0.5 1 0.9
0.6 1 0.9
0.7 1 0.9
0.8 1 0.9
0.9 1 0.9
1 1 0.9
1.1 1 0.9
1.2 1 0.9
1.3 1 0.9
1.4 1 0.9
1.5 1 0.9
1.6 1 0.9
1.7 1 0.9
1.8 1 0.9
1.9 1 0.9
-0.1 1.1 0.9
0 1.1 0.9
0.1 1.1 0.9
0.2 1.1 0.9
0.3 1.1 0.9
0.4 1.1 0.9
0.5 1.1 0.9
0.6 1.1 0.9
0.7 1.1 0.9
0.8 1.1 0.9
0.9 1.1 0.9
1 1.1 0.9
1.1 1.1 0.9
1.2 1.1 0.9
1.3 1.1 0.9
1.4 1.1 0.9
1.5 1.1 0.9
1.6 1.1 0.9
1.7 1.1 0.9
1.8 1.1 0.9
1.9 1.1 0.9
-0.1 1.2 0.9
0 1.2 0.9
0.1 1.2 0.9
0.2 1.2 0.9
0.3 1.2 0.9
0.4 1.2 0.9
0.5 1.2 0.9
0.6 1.2 0.9
0.7 1.2 0.9
0.8 1.2 0.9
0.9 1.2 0.9
1 1.2 0.9
1.1 1.2 0.9
1.2 1.2 0.9
1.3 1.2 0.9
1.4 1.2 0.9
1.5 1.2 0.9
1.6 1.2 0.9
1.7 1.2 0.9
1.8 1.2 0.9
1.9 1.2 0.9
-0.1 1.3 0.9
0 1.3 0.9
0.1 1.3 0.9
0.2 1.3 0.9
0.3 1.3 0.9
0.4 1.3 0.9
0.5 1.3 0.9
0.6 1.3 0.9
0.7 1.3 0.9
0.8 1.3 0.9
0.9 1.3 0.9
1 1.3 0.9
1.1 1.3 0.9
1.2 1.3 0.9
1.3 1.3 0.9
1.4 1.3 0.9
1.5 1.3 0.9
1.6 1.3 0.9
1.7 1.3 0.9
1.8 1.3 0.9
1.9 1.3 0.9
-0.1 1.4 0.9
0 1.4 0.9
0.1 1.4 0.9
0.2 1.4 0.9
0.3 1.4 0.9
0.4 1.4 0.9
0.5 1.4 0.9
0.6 1.4 0.9
0.7 1.4 0.9
0.8 1.4 0.9
0.9 1.4 0.9
1 1.4 0.9
1.1 1.4 0.9
1.2 1.4 0.9
1.3 1.4 0.9
1.4 1.4 0.9
1.5 1.4 0.9
1.6 1.4 0.9
1.7 1.4 0.9
1.8 1.4 0.9
1.9 1.4 0.9
-0.1 1.5 0.9
0 1.5 0.9
0.1 1.5 0.9
0.2 1.5 0.9
0.3 1.5 0.9
0.4 1.5 0.9
0.5 1.5 0.9
0.6 1.5 0.9
0.7 1.5 0.9
0.8 1.5 0.9
0.9 1.5 0.9
1 1.5 0.9
1.1 1.5 0.9
1.2 1.5 0.9
1.3 1.5 0.9
1.4 1.5 0.9
1.5 1.5 0.9
1.6 1.5 0.9
1.7 1.5 0.9
1.8 1.5 0.9
1.9 1.5 0.9
-0.1 1.6 0.9
0 1.6 0.9
0.1 1.6 0.9
0.2 1.6 0.9
0.3 1.6 0.9
0.4 1.6 0.9
0.5 1.6 0.9
0.6 1.6 0.9
0.7 1.6 0.9
0.8 1.6 0.9
0.9 1.6 0.9
1 1.6 0.9
1.1 1.6 0.9
1.2 1.6 0.9
1.3 1.6 0.9
1.4 1.6 0.9
1.5 1.6 0.9
1.6 1.6 0.9
1.7 1.6 0.9
1.8 1.6 0.9
1.9 1.6 0.9
-0.1 1.7 0.9
0 1.7 0.9
0.1 1.7 0.9
0.2 1.7 0.9
0.3 1.7 0.9
0.4 1.7 0.9
0.5 1.7 0.9
0.6 1.7 0.9
0.7 1.7 0.9
0.8 1.7 0.9
0.9 1.7 0.9
1 1.7 0.9
1.1 1.7 0.9
1.2 1.7 0.9
1.3 1.7 0.9
1.4 1.7 0.9
1.5 1.7 0.9
1.6 1.7 0.9
1.7 1.7 0.9
1.8 1.7 0.9
1.9 1.7 0.9
-0.1 1.8 0.9
0 1.8 0.9
0.1 1.8 0.9
0.2 1.8 0.9
0.3 1.8 0.9
0.4 1.8 0.9
0.5 1.8 0.9
0.6 1.8 0.9
0.7 1.8 0.9
0.8 1.8 0.9
0.9 1.8 0.9
1 1.8 0.9
1.1 1.8 0.9
1.2 1.8 0.9
1.3 1.8 0.9
1.4 1.8 0.9
1.5 1.8 0.9
1.6 1.8 0.9
1.7 1.8 0.9
1.8 1.8 0.9
1.9 1.8 0.9
-0.1 1.9 0.9
0 1.9 0.9
0.1 1.9 0.9
0.2 1.9 0.9
0.3 1.9 0.9
0.4 1.9 0.9
0.5 1.9 0.9
0.6 1.9 0.9
0.7 1.9 0.9
0.8 1.9 0.9
0.9 1.9 0.9
1 1.9 0.9
1.1 1.9 0.9
1.2 1.9 0.9
1.3 1.9 0.9
1.4 1.9 0.9
1.5 1.9 0.9
1.6 1.9 0.9
1.7 1.9 0.9
1.8 1.9 0.9
1.9 1.9 0.9
-0.1 -0.1 1
0 -0.1 1
0.1 -0.1 1
0.2 -0.1 1
0.3 -0.1 1
0.4 -0.1 1
0.5 -0.1 1
0.6 -0.1 1
0.7 -0.1 1
0.8 -0.1 1
0.9 -0.1 1
1 -0.1 1
1.1 -0.1 1
1.2 -0.1 1
1.3 -0.1 1
1.4 -0.1 1
1.5 -0.1 1
1.6 -0.1 1
1.7 -0.1 1
1.8 -0.1 1
1.9 -0.1 1
-0.1 0 1
0 0 1
0.1 0 1
0.2 0 1
0.3 0 1
0.4 0 1
0.5 0 1
0.6 0 1
0.7 0 1
0.8 0 1
0.9 0 1
1 0 1
1.1 0 1
1.2 0 1
1.3 0 1
1.4 0 1
1.5 0 1
1.6 0 1
1.7 0 1
1.8 0 1
1.9 0 1
-0.1 0.1 1
0 0.1 1
0.1 0.1 1
0.2 0.1 1
0.3 0.1 1
0.4 0.1 1
0.5 0.1 1
0.6 0.1 1
0.7 0.1 1
0.8 0.1 1
0.9 0.1 1
1 0.1 1
1.1 0.1 1
1.2 0.1 1
1.3 0.1 1
1.4 0.1 1
1.5 0.1 1
1.6 0.1 1
1.7 0.1 1
1.8 0.1 1
1.9 0.1 1
-0.1 0.2 1
0 0.2 1
0.1 0.2 1
0.2 0.2 1
0.3 0.2 1
0.4 0.2 1
0.5 0.2 1
0.6 0.2 1
0.7 0.2 1
0.8 0.2 1
0.9 0.2 1
1 0.2 1
1.1 0.2 1
1.2 0.2 1
1.3 0.2 1
1.4 0.2 1
1.5 0.2 1
1.6 0.2 1
1.7 0.2 1
1.8 0.2 1
1.9 0.2 1
-0.1 0.3 1
0 0.3 1
0.1 0.3 1
0.2 0.3 1
0.3 0.3 1
0.4 0.3 1
0.5 0.3 1
0.6 0.3 1
0.7 0.3 1
0.8 0.3 1
0.9 0.3 1
1 0.3 1
1.1 0.3 1
1.2 0.3 1
1.3 0.3 1
1.4 0.3 1
1.5 0.3 1
1.6 0.3 1
1.7 0.3 1
1.8 0.3 1
1.9 0.3 1
-0.1 0.4 1
0 0.4 1
0.1 0.4 1
0.2 0.4 1
0.3 0.4 1
0.4 0.4 1
0.5 0.4 1
0.6 0.4 1
0.7 0.4 1
0.8 0.4 1
0.9 0.4 1
1 0.4 1
1.1 0.4 1
1.2 0.4 1
1.3 0.4 1
1.4 0.4 1
1.5 0.4 1
1.6 0.4 1
1.7 0.4 1
1.8 0.4 1
1.9 0.4 1
-0.1 0.5 1
0 0.5 1
0.1 0.5 1
0.2 0.5 1
0.3 0.5 1
0.4 0.5 1
0.5 0.5 1
0.6 0.5 1
0.7 0.5 1
0.8 0.5 1
0.9 0.5 1
1 0.5 1
1.1 0.5 1
1.2 0.5 1
1.3 0.5 1
1.4 0.5 1
1.5 0.5 1
1.6 0.5 1
1.7 0.5 1
1.8 0.5 1
1.9 0.5 1
-0.1 0.6 1
0 0.6 1
0.1 0.6 1
0.2 0.6 1
0.3 0.6 1
0.4 0.6 1
0.5 0.6 1
0.6 0.6 1
0.7 0.6 1
0.8 0.6 1
0.9 0.6 1
1 0.6 1
1.1 0.6 1
1.2 0.6 1
1.3 0.6 1
1.4 0.6 1
1.5 0.6 1
1.6 0.6 1
1.7 0.6 1
1.8 0.6 1
1.9 0.6 1
-0.1 0.7 1
0 0.7 1
0.1 0.7 1
0.2 0.7 1
0.3 0.7 1
0.4 0.7 1
0.5 0.7 1
0.6 0.7 1
0.7 0.7 1
0.8 0.7 1
0.9 0.7 1
1 0.7 1
1.1 0.7 1
1.2 0.7 1
1.3 0.7 1
1.4 0.7 1
1.5 0.7 1
1.6 0.7 1
1.7 0.7 1
1.8 0.7 1
1.9 0.7 1
-0.1 0.8 1
0 0.8 1
0.1 0.8 1
0.2 0.8 1
0.3 0.8 1
0.4 0.8 1
0.5 0.8 1
0.6 0.8 1
0.7 0.8 1
0.8 0.8 1
0.9 0.8 1
1 0.8 1
1.1 0.8 1
1.2 0.8 1
1.3 0.8 1
1.4 0.8 1
1.5 0.8 1
1.6 0.8 1
1.7 0.8 1
1.8 0.8 1
1.9 0.8 1
-0.1 0.9 1
0 0.9 1
0.1 0.9 1
0.2 0.9 1
0.3 0.9 1
0.4 0.9 1
0.5 0.9 1
0.6 0.9 1
0.7 0.9 1
0.8 0.9 1
0.9 0.9 1
1 0.9 1
1.1 0.9 1
1.2 0.9 1
1.3 0.9 1
1.4 0.9 1
1.5 0.9 1
1.6 0.9 1
1.7 0.9 1
1.8 0.9 1
1.9 0.9 1
-0.1 1 1
0 1 1
0.1 1 1
0.2 1 1
0.3 1 1
0.4 1 1
0.5 1 1
0.6 1 1
0.7 1 1
0.8 1 1
0.9 1 1
1 1 1
1.1 1 1
1.2 1 1
1.3 1 1
1.4 1 1
1.5 1 1
1.6 1 1
1.7 1 1
1.8 1 1
1.9 1 1
-0.1 1.1 1
0 1.1 1
0.1 1.1 1
0.2 1.1 1
0.3 1.1 1
0.4 1.1 1
0.5 1.1 1
0.6 1.1 1
0.7 1.1 1
0.8 1.1 1
0.9 1.1 1
1 1.1 1
1.1 1.1 1
1.2 1.1 1
1.3 1.1 1
1.4 1.1 1
1.5 1.1 1
1.6 1.1 1
1.7 1.1 1
1.8 1.1 1
1.9 1.1 1
-0.1 1.2 1
0 1.2 1
0.1 1.2 1
0.2 1.2 1
0.3 1.2 1
0.4 1.2 1
0.5 1.2 1
0.6 1.2 1
0.7 1.2 1
0.8 1.2 1
0.9 1.2 1
1 1.2 1
1.1 1.2 1
1.2 1.2 1
1.3 1.2 1
1.4 1.2 1
1.5 1.2 1
1.6 1.2 1
1.7 1.2 1
1.8 1.2 1
1.9 1.2 1
-0.1 1.3 1
0 1.3 1
0.1 1.3 1
0.2 1.3 1
0.3 1.3 1
0.4 1.3 1
0.5 1.3 1
0.6 1.3 1
0.7 1.3 1
0.8 1.3 1
0.9 1.3 1
1 1.3 1
1.1 1.3 1
1.2 1.3 1
1.3 1.3 1
1.4 1.3 1
1.5 1.3 1
1.6 1.3 1
1.7 1.3 1
1.8 1.3 1
1.9 1.3 1
-0.1 1.4 1
0 1.4 1
0.1 1.4 1
0.2 1.4 1
0.3 1.4 1
0.4 1.4 1
0.5 1.4 1
0.6 1.4 1
0.7 1.4 1
0.8 1.4 1
0.9 1.4 1
1 1.4 1
1.1 1.4 1
1.2 1.4 1
1.3 1.4 1
1.4 1.4 1
1.5 1.4 1
1.6 1.4 1
1.7 1.4 1
1.8 1.4 1
1.9 1.4 1
-0.1 1.5 1
0 1.5 1
0.1 1.5 1
0.2 1.5 1
0.3 1.5 1
0.4 1.5 1
0.5 1.5 1
0.6 1.5 1
0.7 1.5 1
0.8 1.5 1
0.9 1.5 1
1 1.5 1
1.1 1.5 1
1.2 1.5 1
1.3 1.5 1
1.4 1.5 1
1.5 1.5 1
1.6 1.5 1
1.7 1.5 1
1.8 1.5 1
1.9 1.5 1
-0.1 1.6 1
0 1.6 1
0.1 1.6 1
0.2 1.6 1
0.3 1.6 1
0.4 1.6 1
0.5 1.6 1
0.6 1.6 1
0.7 1.6 1
0.8 1.6 1
0.9 1.6 1
1 1.6 1
1.1 1.6 1
1.2 1.6 1
1.3 1.6 1
1.4 1.6 1
1.5 1.6 1
1.6 1.6 1
1.7 1.6 1
1.8 1.6 1
1.9 1.6 1
-0.1 1.7 1
0 1.7 1
0.1 1.7 1
0.2 1.7 1
0.3 1.7 1
0.4 1.7 1
0.5 1.7 1
0.6 1.7 1
0.7 1.7 1
0.8 1.7 1
0.9 1.7 1
1 1.7 1
1.1 1.7 1
1.2 1.7 1
1.3 1.7 1
1.4 1.7 1
1.5 1.7 1
1.6 1.7 1
1.7 1.7 1
1.8 1.7 1
1.9 1.7 1
-0.1 1.8 1
0 1.8 1
0.1 1.8 1
0.2 1.8 1
0.3 1.8 1
0.4 1.8 1
0.5 1.8 1
0.6 1.8 1
0.7 1.8 1
0.8 1.8 1
0.9 1.8 1
1 1.8 1
1.1 1.8 1
1.2 1.8 1
1.3 1.8 1
1.4 1.8 1
1.5 1.8 1
1.6 1.8 1
1.7 1.8 1
1.8 1.8 1
1.9 1.8 1
-0.1 1.9 1
0 1.9 1
0.1 1.9 1
0.2 1.9 1
0.3 1.9 1
0.4 1.9 1
0.5 1.9 1
0.6 1.9 1
0.7 1.9 1
0.8 1.9 1
0.9 1.9 1
1 1.9 1
1.1 1.9 1
1.2 1.9 1
1.3 1.9 1
1.4 1.9 1
1.5 1.9 1
1.6 1.9 1
1.7 1.9 1
1.8 1.9 1
1.9 1.9 1
-0.1 -0.1 1.1
0 -0.1 1.1
0.1 -0.1 1.1
0.2 -0.1 1.1
0.3 -0.1 1.1
0.4 -0.1 1.1
0.5 -0.1 1.1
0.6 -0.1 1.1
0.7 -0.1 1.1
0.8 -0.1 1.1
0.9 -0.1 1.1
1 -0.1 1.1
1.1 -0.1 1.1
1.2 -0.1 1.1
1.3 -0.1 1.1
1.4 -0.1 1.1
1.5 -0.1 1.1
1.6 -0.1 1.1
1.7 -0.1 1.1
1.8 -0.1 1.1
1.9 -0.1 1.1
-0.1 0 1.1
0 0 1.1
0.1 0 1.1
0.2 0 1.1
0.3 0 1.1
0.4 0 1.1
0.5 0 1.1
0.6 0 1.1
0.7 0 1.1
0.8 0 1.1
0.9 0 1.1
1 0 1.1
1.1 0 1.1
1.2 0 1.1
1.3 0 1.1
1.4 0 1.1
1.5 0 1.1
[...]
CELL_DATA 4000
VECTORS velocity double 
-6.74417e-06 -0.000191437 0.00359162
-2.36038e-05 -0.000229124 0.00450159
-4.21745e-05 -0.000246927 0.00455642
-5.58348e-05 -0.000256578 0.00456105
-6.61603e-05 -0.000260437 0.00457495
-7.55621e-05 -0.000261698 0.00457838
-8.48634e-05 -0.000262064 0.00456402
-9.36591e-05 -0.000262223 0.00453251
-0.000101026 -0.000262378 0.00448584
-0.000105705 -0.000262407 0.00442583
-0.000106352 -0.00026205 0.00435441
-0.000101806 -0.000261055 0.00427413
-9.14543e-05 -0.000259127 0.0041885
-7.54661e-05 -0.00025578 0.00410224
-5.54593e-05 -0.000250627 0.00402116
-3.48904e-05 -0.00024304 0.00395386
-2.04201e-05 -0.000232673 0.00391803
-2.21797e-05 -0.000219204 0.00394563
-4.75133e-05 -0.00020424 0.00398996
-2.37567e-05 -0.000171988 0.00327079
-1.83079e-05 -0.000547684 0.00435483
-5.65466e-05 -0.000684894 0.00515226
-9.16405e-05 -0.000735497 0.00494514
-0.000116618 -0.000760759 0.00484582
-0.000135394 -0.000771328 0.00484074
-0.000151712 -0.000775077 0.00484382
-0.000166948 -0.000776265 0.00482503
-0.000180812 -0.000776711 0.00478085
-0.000192108 -0.000776902 0.0047134
-0.000199148 -0.000776594 0.00462525
-0.000200145 -0.000775241 0.00451913
-0.000193405 -0.000772097 0.00439888
-0.000177576 -0.000766333 0.00426964
-0.000152342 -0.000756923 0.00413836
-0.000118766 -0.000742717 0.00401429
-8.04787e-05 -0.000722707 0.00391419
-4.49268e-05 -0.000695821 0.00388329
-2.72694e-05 -0.000662002 0.00402898
-4.45185e-05 -0.000621515 0.0043951
-2.22592e-05 -0.000514126 0.00392277
-5.10336e-05 -0.00103208 0.00399174
-0.000116516 -0.00132083 0.00408864
-0.000165794 -0.0014152 0.00356368
-0.000196276 -0.00146003 0.00336806
-0.000216264 -0.00147918 0.00334588
-0.000231955 -0.00148638 0.00334982
-0.000245828 -0.00148892 0.00333214
-0.000257848 -0.00148987 0.00328581
-0.000266657 -0.00149002 0.00321254
-0.000270264 -0.00148906 0.00311499
-0.000266441 -0.00148619 0.00299614
-0.000253064 -0.00148014 0.00286019
-0.000228267 -0.00146933 0.0027131
-0.000191079 -0.00145205 0.00256285
-0.000142295 -0.00142648 0.0024207
-8.50558e-05 -0.00139085 0.00230831
-2.7526e-05 -0.00134398 0.0022902
1.19942e-05 -0.00128588 0.00253806
4.59744e-06 -0.00121254 0.00324727
2.29872e-06 -0.000985424 0.00352912
-9.31343e-05 -0.00162226 0.00325055
-0.000191763 -0.0021159 0.00245042
-0.000257261 -0.00226643 0.00160321
-0.000292939 -0.00233518 0.00132382
-0.000312635 -0.00236495 0.0012889
-0.000325626 -0.00237665 0.00129487
-0.000335721 -0.00238109 0.00127962
-0.000343249 -0.00238278 0.00123321
-0.000346835 -0.00238306 0.00115696
-0.000344251 -0.00238153 0.00105349
-0.000332783 -0.00237697 0.000925903
-0.000309635 -0.00236755 0.000778601
-0.000272431 -0.00235085 0.000618223
-0.000219634 -0.00232428 0.000453955
-0.000151543 -0.00228529 0.000298868
-7.151e-05 -0.00223132 0.000178689
1.12929e-05 -0.00216093 0.000172781
7.4273e-05 -0.00207409 0.0005099
7.46508e-05 -0.00195824 0.0015573
3.73254e-05 -0.00156247 0.00276916
-0.000143846 -0.00230385 0.00209899
-0.000282166 -0.00305785 0.000154843
-0.000366754 -0.00327917 -0.00106878
-0.00040813 -0.00337699 -0.00144199
-0.000426907 -0.0034197 -0.00149177
-0.000436033 -0.0034371 -0.00148421
-0.000440887 -0.00344411 -0.00149683
-0.000442452 -0.00344702 -0.00154288
-0.000439255 -0.00344776 -0.00162146
-0.000428737 -0.00344595 -0.00173002
-0.000407639 -0.00343984 -0.00186538
-0.000372387 -0.00342693 -0.00202292
-0.000319881 -0.00340389 -0.00219527
-0.000248041 -0.00336697 -0.00237175
-0.000156576 -0.00331243 -0.00253747
-4.91193e-05 -0.00323715 -0.00266231
6.35845e-05 -0.00313909 -0.00265181
0.00015337 -0.00301793 -0.00221505
0.000161136 -0.00284685 -0.00077864
8.05678e-05 -0.00223074 0.0016037
-0.000205139 -0.00305199 0.000387132
-0.000391264 -0.00412023 -0.00305465
-0.000498555 -0.00442835 -0.00475406
-0.000546348 -0.00456075 -0.00524709
-0.000563542 -0.0046188 -0.00531852
-0.000567554 -0.00464308 -0.00531138
-0.000565722 -0.0046534 -0.00532199
-0.000559777 -0.00465817 -0.00536741
-0.000548268 -0.00465996 -0.0054476
-0.000528161 -0.00465843 -0.00556031
-0.000495576 -0.00465127 -0.00570227
-0.000446007 -0.00463517 -0.00586857
-0.000375344 -0.00460579 -0.00605099
-0.000280569 -0.00455787 -0.00623737
-0.000161139 -0.00448637 -0.00641043
-2.06098e-05 -0.00438685 -0.0065355
0.000127945 -0.00425703 -0.00649975
0.000250106 -0.0040947 -0.00593791
0.000266471 -0.0038537 -0.00401654
0.000133235 -0.00296698 -0.000116059
-0.000278483 -0.00381948 -0.00204504
-0.000521532 -0.00524811 -0.00743109
-0.000655488 -0.00565879 -0.00973597
-0.000710484 -0.00583091 -0.0103844
-0.000725316 -0.00590628 -0.0104874
-0.000722826 -0.00593843 -0.0104837
-0.000712805 -0.00595281 -0.0104933
-0.000697828 -0.00596015 -0.0105382
-0.000676513 -0.00596373 -0.0106193
-0.000645243 -0.00596326 -0.0107348
-0.000599397 -0.00595608 -0.0108815
-0.000533468 -0.00593778 -0.011054
-0.000441841 -0.00590277 -0.0112431
-0.00032048 -0.00584427 -0.0114355
-0.000167898 -0.00575532 -0.0116111
1.17893e-05 -0.00562996 -0.0117295
0.000203742 -0.00546437 -0.0116564
0.000365161 -0.00525399 -0.0109345
0.000392059 -0.00492742 -0.00840427
0.000196029 -0.00372574 -0.00254796
-0.000363966 -0.0045281 -0.00535146
-0.000672998 -0.00634649 -0.0132103
-0.000837426 -0.00687301 -0.0162751
-0.000900237 -0.00708861 -0.0171221
-0.000911853 -0.0071823 -0.0172691
-0.000901567 -0.00722272 -0.0172732
-0.000881934 -0.00724163 -0.0172833
-0.000856488 -0.00725225 -0.0173281
-0.000824073 -0.00725853 -0.0174094
-0.000780544 -0.00726025 -0.0175259
-0.000720203 -0.00725446 -0.0176746
-0.000636346 -0.00723588 -0.0178497
-0.000521758 -0.00719733 -0.0180411
-0.00037069 -0.00713032 -0.0182337
-0.000180556 -0.00702551 -0.0184049
4.49515e-05 -0.00687439 -0.0185075
0.000288295 -0.00667094 -0.0183814
0.000496841 -0.00640646 -0.0174576
0.000537232 -0.00597881 -0.0141718
0.000268616 -0.00443087 -0.00584335
-0.000459644 -0.005062 -0.00965881
-0.000842251 -0.00727069 -0.0205865
-0.00104005 -0.00792067 -0.024587
-0.00111082 -0.00818052 -0.0256824
-0.00111828 -0.00829176 -0.0258882
-0.00109903 -0.00833994 -0.0259051
-0.00106873 -0.00836326 -0.0259177
-0.00103188 -0.00837751 -0.0259628
-0.000987589 -0.0083875 -0.0260437
-0.000931381 -0.00839293 -0.0261591
-0.00085648 -0.00839063 -0.0263065
-0.000754516 -0.00837469 -0.0264799
-0.000616552 -0.00833669 -0.0266682
-0.000434495 -0.00826584 -0.0268543
-0.000203679 -0.00814989 -0.0270126
7.30726e-05 -0.00797663 -0.0270887
0.000375613 -0.00773663 -0.0268913
0.000639966 -0.0074142 -0.0257173
0.000698036 -0.0068724 -0.021509
0.000349018 -0.00497018 -0.0101273
-0.000560783 -0.00526534 -0.015031
-0.00102085 -0.00782077 -0.02966
-0.00125269 -0.00859151 -0.0347857
-0.00133072 -0.00889159 -0.036183
-0.00133311 -0.00901694 -0.036463
-0.00130409 -0.00907096 -0.0364982
-0.00126266 -0.0090979 -0.0365155
-0.0012144 -0.00911569 -0.0365612
-0.00115857 -0.00913004 -0.036641
-0.00109051 -0.00914076 -0.0367537
-0.00100258 -0.0091447 -0.0368967
-0.000884847 -0.00913568 -0.0370639
-0.000725915 -0.00910426 -0.0372434
-0.000514725 -0.00903756 -0.0374162
-0.000243293 -0.00891958 -0.0375534
8.7239e-05 -0.00873365 -0.037592
0.000455346 -0.00846387 -0.0373046
0.000783804 -0.00808495 -0.0358279
0.000864792 -0.0074216 -0.0305165
0.000432396 -0.00519213 -0.0154638
-0.000658631 -0.00494771 -0.0214211
-0.00119295 -0.00774438 -0.0403656
-0.00145588 -0.00861722 -0.0468045
-0.00153908 -0.00894574 -0.0485561
-0.00153553 -0.00907764 -0.0489239
-0.00149666 -0.0091336 -0.048982
-0.00144456 -0.00916251 -0.049006
-0.00138603 -0.00918333 -0.0490525
-0.00132054 -0.00920227 -0.0491303
-0.00124348 -0.0092197 -0.0492389
-0.00114661 -0.0092328 -0.0493751
-0.00101857 -0.00923583 -0.0495328
-0.00084538 -0.00921905 -0.0496994
-0.00061193 -0.00916785 -0.0498543
-0.000306045 -0.00906297 -0.0499653
7.56861e-05 -0.00888122 -0.0499597
0.000511119 -0.00859801 -0.0495669
0.000909921 -0.00817291 -0.0477365
0.00102046 -0.00739079 -0.0411391
0.00051023 -0.0049104 -0.02181
-0.000738967 -0.0039026 -0.0286227
-0.00133298 -0.00675493 -0.0523977
-0.00161778 -0.00768767 -0.0603144
-0.00170191 -0.00802219 -0.0624626
-0.00169172 -0.008148 -0.0629262
-0.00164423 -0.00819934 -0.0630079
-0.00158359 -0.00822724 -0.0630392
-0.00151762 -0.0082499 -0.0630868
-0.00144637 -0.00827318 -0.063162
-0.00136548 -0.00829812 -0.063265
-0.00126679 -0.00832298 -0.0633933
-0.00113799 -0.00834327 -0.0635404
-0.000962568 -0.00835022 -0.0636937
-0.00072145 -0.00832912 -0.0638317
-0.000395799 -0.00825797 -0.0639191
2.44478e-05 -0.00810701 -0.0638721
0.000520604 -0.00783947 -0.0633696
0.000990833 -0.00739306 -0.0611446
0.00113848 -0.00651224 -0.0530943
0.000569238 -0.00392071 -0.0289679
-0.000780694 -0.00194657 -0.036239
-0.00140226 -0.00457263 -0.0651603
-0.00169087 -0.00549094 -0.0746641
-0.00176877 -0.00579541 -0.0772305
-0.00175133 -0.00589711 -0.0777878
-0.00169817 -0.00593534 -0.0778885
-0.0016335 -0.0059581 -0.0779241
-0.0015654 -0.00598045 -0.077972
-0.00149472 -0.00600693 -0.0780439
-0.00141795 -0.00603903 -0.078141
-0.00132775 -0.00607677 -0.0782617
-0.00121196 -0.0061181 -0.0784002
-0.00105279 -0.00615699 -0.0785453
-0.000827199 -0.00618121 -0.0786759
-0.000508959 -0.00616849 -0.0787551
-7.7658e-05 -0.00608421 -0.0786869
0.000457458 -0.00587713 -0.0780914
0.000989312 -0.00545592 -0.0754543
0.00118157 -0.00452419 -0.0658258
0.000590783 -0.00203846 -0.0365544
-0.000753309 0.00101715 -0.0436821
-0.00134542 -0.000996351 -0.0777567
-0.0016079 -0.00178468 -0.0888612
-0.00166926 -0.00200704 -0.0918319
-0.00164473 -0.00206169 -0.0924664
-0.0015909 -0.00207739 -0.0925749
-0.00152939 -0.00209064 -0.0926084
-0.00146743 -0.00210999 -0.0926531
-0.00140644 -0.00213751 -0.0927205
-0.00134445 -0.00217485 -0.092812
-0.00127604 -0.00222407 -0.092927
-0.00119073 -0.00228672 -0.0930626
-0.00107184 -0.00236185 -0.0932109
-0.000894103 -0.00244261 -0.0933543
-0.000624797 -0.00251181 -0.0934568
-0.000230069 -0.00253456 -0.0934115
0.000297821 -0.00244811 -0.0927705
0.00086058 -0.00212664 -0.0897444
0.00110036 -0.00123424 -0.0784914
0.000550178 0.000841876 -0.0440002
-0.000614933 0.00490951 -0.0501742
-0.00108675 0.00399902 -0.0888386
-0.00127826 0.00350476 -0.101351
-0.00130953 0.00343075 -0.104642
-0.00127957 0.00344824 -0.105314
-0.00123294 0.0034638 -0.105412
-0.00118494 0.00346368 -0.105433
-0.0011406 0.00345004 -0.10547
-0.0011015 0.00342451 -0.105531
-0.00106752 0.00338571 -0.105617
-0.00103624 0.00332946 -0.10573
-0.00100116 0.00325011 -0.105871
-0.000949316 0.00314225 -0.106039
-0.000858141 0.00300337 -0.106224
-0.000692008 0.0028397 -0.106397
-0.000405272 0.00267599 -0.106444
3.44869e-05 0.002576 -0.105846
0.000560045 0.00269362 -0.102531
0.000834592 0.00339426 -0.0897956
0.000417296 0.00466024 -0.0505405
-0.000306514 0.00934776 -0.0543857
-0.000527168 0.0101053 -0.0956165
-0.000589048 0.0101135 -0.108733
-0.000575265 0.0102583 -0.112071
-0.000544292 0.0103679 -0.112691
-0.000516638 0.0104197 -0.112748
-0.000496729 0.0104347 -0.112747
-0.000485688 0.0104291 -0.112769
-0.000484591 0.0104091 -0.112821
-0.000495072 0.010374 -0.112901
-0.000518192 0.0103182 -0.113015
-0.000552798 0.0102327 -0.113168
-0.000593587 0.0101054 -0.11337
-0.000626342 0.00992284 -0.113625
-0.000622204 0.00967432 -0.113919
-0.000532639 0.00936211 -0.114143
-0.000302399 0.00902819 -0.113735
5.83255e-05 0.00882473 -0.11043
0.00031377 0.00910638 -0.0969647
0.000156885 0.00906313 -0.0548491
0.000247746 0.0134609 -0.0524277
0.000443196 0.0164079 -0.0894652
0.000570896 0.0171218 -0.100508
0.00063721 0.0175314 -0.103063
0.000656976 0.0177366 -0.103419
0.000646666 0.0178222 -0.103385
0.000616965 0.0178517 -0.103348
0.000572337 0.0178558 -0.103352
0.000513191 0.0178448 -0.103392
0.000437178 0.0178191 -0.103466
0.000340377 0.0177728 -0.103579
0.000218382 0.0176953 -0.103746
6.69136e-05 0.0175704 -0.103985
-0.000114462 0.0173757 -0.104319
-0.000315943 0.0170831 -0.104761
-0.000507741 0.0166633 -0.105239
-0.000634581 0.0161096 -0.105273
-0.000641706 0.0155125 -0.102834
-0.000545587 0.0151111 -0.0912918
-0.000272794 0.0132079 -0.0530094
0.00108048 0.0156631 -0.0305614
0.00183229 0.0209191 -0.0442012
0.00217204 0.0223776 -0.0466892
0.00226965 0.0230141 -0.0466848
0.00224588 0.023285 -0.0463672
0.00216321 0.0233916 -0.0461644
0.00204991 0.0234321 -0.046079
0.00191717 0.023446 -0.0460635
0.00176816 0.023446 -0.0460908
0.0016014 0.0234335 -0.0461548
0.00141231 0.0234036 -0.0462621
0.00119259 0.0233468 -0.0464291
0.000930149 0.0232473 -0.0466827
0.000608201 0.0230805 -0.0470621
0.000207348 0.0228089 -0.0476174
-0.000288338 0.0223788 -0.0483815
-0.000874572 0.0217265 -0.0492351
-0.00147768 0.0208226 -0.0494467
-0.00178775 0.0196186 -0.0463739
-0.000893877 0.0154969 -0.0312352
0.00196559 0.0136753 0.0589016
0.00319241 0.0198022 0.107637
0.00362689 0.0214473 0.121648
0.00365475 0.022073 0.12557
0.00350883 0.0223207 0.126741
0.0032939 0.022417 0.127115
0.00305304 0.0224566 0.127236
0.00280293 0.0224743 0.127265
0.00254896 0.0224815 0.127249
0.00229057 0.0224794 0.1272
0.00202315 0.0224654 0.127113
0.00173765 0.0224334 0.126974
0.00141808 0.0223721 0.126758
0.00103758 0.0222632 0.126422
0.000551942 0.0220762 0.125887
-0.00010904 0.0217611 0.124989
-0.00103734 0.0212415 0.12328
-0.00224557 0.0204154 0.119099
-0.00315092 0.0189425 0.105556
-0.00157546 0.0135689 0.0581757
0.00165083 0.00683767 0.387611
0.00259627 0.00990111 0.525772
0.00278485 0.0107236 0.549613
0.00263176 0.0110365 0.554131
0.00236961 0.0111604 0.555154
0.00209101 0.0112085 0.555428
0.00182811 0.0112283 0.555507
0.00158988 0.0112372 0.555522
0.0013757 0.0112407 0.555509
0.00118141 0.0112397 0.555475
0.00100068 0.0112327 0.555421
0.000824424 0.0112167 0.555338
0.000639516 0.0111861 0.555215
0.000424148 0.0111316 0.555024
0.000139408 0.0110381 0.554711
-0.000285959 0.0108806 0.554132
-0.000964526 0.0106208 0.552771
-0.0019578 0.0102077 0.54805
-0.00272077 0.00947125 0.524416
-0.00136038 0.00678446 0.386911
6.46993e-06 -0.000131101 0.00388911
8.89461e-06 -0.000152409 0.00490214
2.38858e-06 -0.000162403 0.00497127
-6.89454e-06 -0.000168002 0.0049814
-1.83928e-05 -0.000170091 0.00499966
-3.24421e-05 -0.000170668 0.00500604
-4.87199e-05 -0.000170927 0.00499321
-6.62386e-05 -0.000171297 0.00496213
-8.37574e-05 -0.000171923 0.00491485
-9.97859e-05 -0.000172759 0.00485307
-0.000112558 -0.000173552 0.00477848
-0.000120496 -0.000174047 0.00469332
-0.000122107 -0.00017391 0.00460112
-0.000116617 -0.000172704 0.00450668
-0.000104499 -0.000169927 0.00441656
-8.85686e-05 -0.000164996 0.00434064
-7.43912e-05 -0.000157555 0.00429883
-7.06533e-05 -0.000147659 0.00432563
-8.08776e-05 -0.000136461 0.00436758
-4.04388e-05 -0.000111925 0.00356675
5.50128e-06 -0.000397224 0.00481566
-2.94416e-06 -0.000491038 0.00577174
-1.83769e-05 -0.00052273 0.00557862
-3.40155e-05 -0.000538122 0.00548389
-5.09385e-05 -0.000543959 0.00548443
-7.0527e-05 -0.000545593 0.00549165
-9.27893e-05 -0.000546093 0.00547494
-0.00011678 -0.000546765 0.00543102
-0.000141022 -0.000547958 0.0053621
-0.000163502 -0.000549433 0.00527063
-0.000181914 -0.000550701 0.00515911
-0.000193971 -0.000551218 0.00503093
-0.000197313 -0.000550024 0.00489111
-0.000190281 -0.00054611 0.00474688
-0.000172533 -0.00053809 0.00460853
-0.000146675 -0.000524896 0.00449471
-0.000119107 -0.000505475 0.00445492
-0.000102096 -0.000480403 0.00460263
-0.000104342 -0.000450371 0.00497338
-5.21708e-05 -0.000368922 0.00437438
-1.44671e-05 -0.000803908 0.00457532
-4.04353e-05 -0.0010192 0.00484327
-6.52159e-05 -0.00108287 0.00432678
-8.46639e-05 -0.0011116 0.00413514
-0.000102834 -0.00112265 0.00411994
-0.000122831 -0.00112596 0.00412916
-0.000145424 -0.00112698 0.00411415
-0.0001698 -0.00112792 0.00406811
-0.000194238 -0.00112942 0.00399302
-0.00021646 -0.00113123 0.0038914
-0.000233895 -0.00113258 0.00376581
-0.00024361 -0.00113242 0.00361993
-0.00024272 -0.0011292 0.00345952
-0.000228694 -0.00112105 0.00329285
-0.000200815 -0.00110582 0.00313228
-0.000161081 -0.0010815 0.003002
-0.000116888 -0.00104702 0.002972
-8.33975e-05 -0.00100309 0.00322359
-7.7652e-05 -0.000947582 0.00394764
-3.8826e-05 -0.000767961 0.00409821
-4.31832e-05 -0.0013565 0.00398033
-9.22004e-05 -0.00175007 0.00336225
-0.000128464 -0.00185839 0.00251958
-0.000151871 -0.0019049 0.00224503
-0.000170521 -0.00192319 0.0022191
-0.000189737 -0.00192908 0.00223191
-0.000211091 -0.0019309 0.00222011
-0.000234057 -0.00193229 0.00217421
-0.000256827 -0.00193409 0.0020959
-0.000276791 -0.00193599 0.00198766
-0.000290926 -0.00193705 0.00185197
-0.000295715 -0.00193558 0.00169255
-0.000287494 -0.00192931 0.00151575
-0.000263001 -0.00191537 0.00133117
-0.000220822 -0.00189069 0.00115299
-0.000163133 -0.00185238 0.00100993
-9.83005e-05 -0.00179902 0.000988265
-4.57585e-05 -0.00173168 0.00132944
-3.28645e-05 -0.00164089 0.00240108
-1.64323e-05 -0.0013114 0.00347915
-8.02204e-05 -0.00206473 0.00299319
-0.000158554 -0.00270318 0.00123921
-0.000209048 -0.00287217 1.52764e-05
-0.000237048 -0.00294217 -0.000351838
-0.000255697 -0.00297017 -0.000390118
-0.000273103 -0.00297992 -0.000373993
-0.000292179 -0.00298326 -0.000382283
-0.000312492 -0.00298524 -0.000427377
-0.000332178 -0.00298738 -0.0005081
-0.000348441 -0.00298934 -0.000622197
-0.000357609 -0.00298978 -0.000767144
-0.000355443 -0.00298645 -0.000939188
-0.000337324 -0.00297611 -0.00113133
-0.000299178 -0.00295479 -0.00133271
-0.000238865 -0.00291813 -0.00152686
-0.000158647 -0.00286239 -0.00168034
-6.86433e-05 -0.00278558 -0.00169017
6.62711e-06 -0.00268865 -0.00124914
2.69574e-05 -0.0025491 0.000222543
1.34787e-05 -0.0020086 0.00247223
-0.000127807 -0.00292888 0.00144798
-0.000243403 -0.00388663 -0.00180556
-0.000311788 -0.0041356 -0.00351329
-0.000345127 -0.00423572 -0.0039995
-0.000363304 -0.0042765 -0.00405694
-0.000377831 -0.00429143 -0.00403923
-0.000393049 -0.00429703 -0.00404432
-0.000409174 -0.00430012 -0.00408838
-0.000424223 -0.00430285 -0.00417081
-0.000435039 -0.00430497 -0.00428976
-0.000437342 -0.0043047 -0.00444284
-0.000425899 -0.00429906 -0.00462606
-0.000395019 -0.00428379 -0.00483188
-0.000339478 -0.00425355 -0.00504807
-0.000256481 -0.00420257 -0.00525567
-0.000148163 -0.00412561 -0.00541562
-2.69374e-05 -0.00402023 -0.00540518
7.65275e-05 -0.00388591 -0.00483802
0.000105301 -0.00368095 -0.00286663
5.26506e-05 -0.00286087 0.000912725
-0.00018805 -0.00392833 -0.000837008
-0.000350595 -0.0052835 -0.00605435
-0.0004411 -0.00563381 -0.00838102
-0.000480867 -0.00577131 -0.00902311
-0.000497765 -0.00582775 -0.00910973
-0.000508047 -0.0058495 -0.00909351
-0.000517804 -0.00585818 -0.00909641
-0.000527926 -0.00586303 -0.00913942
-0.000536503 -0.0058668 -0.00922279
-0.000539878 -0.00586937 -0.00934505
-0.000533076 -0.00586854 -0.00950422
-0.00050979 -0.00586056 -0.00969592
-0.000462958 -0.00583996 -0.00991214
-0.000386007 -0.00579991 -0.0101393
-0.000274905 -0.00573261 -0.0103557
-0.000132021 -0.00563114 -0.0105156
2.81106e-05 -0.0054916 -0.0104726
0.000166516 -0.00531135 -0.00974302
0.000205282 -0.00502143 -0.00714222
0.000102641 -0.00384874 -0.00137808
-0.000262336 -0.00501044 -0.00404555
-0.000482264 -0.0068372 -0.0117824
-0.000599576 -0.00731101 -0.0148901
-0.000646623 -0.00749275 -0.0157334
-0.000661645 -0.00756748 -0.0158623
-0.000666125 -0.00759721 -0.0158521
-0.000668694 -0.00760989 -0.0158545
-0.000670881 -0.0076171 -0.0158968
-0.000670974 -0.00762253 -0.0159802
-0.000664885 -0.00762609 -0.0161037
-0.000646821 -0.00762529 -0.0162657
-0.000609202 -0.0076156 -0.016462
-0.00054344 -0.00759024 -0.0166837
-0.000440965 -0.00754054 -0.0169158
-0.000296356 -0.0074564 -0.0171336
-0.000111486 -0.00732823 -0.0172841
9.60152e-05 -0.00715008 -0.0171923
0.000277388 -0.00691493 -0.0162561
0.000328687 -0.0065181 -0.0128713
0.000164343 -0.00492145 -0.00458063
-0.000350473 -0.00607845 -0.00834474
-0.000638167 -0.0084356 -0.0192352
-0.000786522 -0.00905276 -0.0233104
-0.000841568 -0.00928379 -0.0244083
-0.00085375 -0.00937823 -0.0245955
-0.000851022 -0.00941656 -0.024597
-0.000844605 -0.00943371 -0.0246011
-0.000837076 -0.0094439 -0.024643
-0.000826884 -0.00945169 -0.0247256
-0.000809617 -0.00945712 -0.024848