# vtk DataFile Version 2.0 
Visualization 
ASCII 
DATASET STRUCTURED_GRID 
DIMENSIONS 21 21 11
POINTS 4851 float
-0.1 -0.1 0.9
0 -0.1 0.9
0.1 -0.1 0.9
0.2 -0.1 0.9
0.3 -0.1 0.9
0.4 -0.1 0.9
0.5 -0.1 0.9
0.6 -0.1 0.9
0.7 -0.1 0.9
0.8 -0.1 0.9
0.9 -0.1 0.9
1 -0.1 0.9
1.1 -0.1 0.9
1.2 -0.1 0.9
1.3 -0.1 0.9
1.4 -0.1 0.9
1.5 -0.1 0.9
1.6 -0.1 0.9
1.7 -0.1 0.9
1.8 -0.1 0.9
1.9 -0.1 0.9
-0.1 0 0.9
0 0 0.9
0.1 0 0.9
0.2 0 0.9
0.3 0 0.9
0.4 0 0.9
0.5 0 0.9
0.6 0 0.9
0.7 0 0.9
0.8 0 0.9
0.9 0 0.9
1 0 0.9
1.1 0 0.9
1.2 0 0.9
1.3 0 0.9
1.4 0 0.9
1.5 0 0.9
1.6 0 0.9
1.7 0 0.9
1.8 0 0.9
1.9 0 0.9
-0.1 0.1 0.9
0 0.1 0.9
0.1 0.1 0.9
0.2 0.1 0.9
0.3 0.1 0.9
0.4 0.1 0.9
0.5 0.1 0.9
0.6 0.1 0.9
0.7 0.1 0.9
0.8 0.1 0.9
0.9 0.1 0.9
1 0.1 0.9
1.1 0.1 0.9
1.2 0.1 0.9
1.3 0.1 0.9
1.4 0.1 0.9
1.5 0.1 0.9
1.6 0.1 0.9
1.7 0.1 0.9
1.8 0.1 0.9
1.9 0.1 0.9
-0.1 0.2 0.9
0 0.2 0.9
0.1 0.2 0.9
0.2 0.2 0.9
0.3 0.2 0.9
0.4 0.2 0.9
0.5 0.2 0.9
0.6 0.2 0.9
0.7 0.2 0.9
0.8 0.2 0.9
0.9 0.2 0.9
1 0.2 0.9
1.1 0.2 0.9
1.2 0.2 0.9
1.3 0.2 0.9
1.4 0.2 0.9
1.5 0.2 0.9
1.6 0.2 0.9
1.7 0.2 0.9
1.8 0.2 0.9
1.9 0.2 0.9
-0.1 0.3 0.9
0 0.3 0.9
0.1 0.3 0.9
0.2 0.3 0.9
0.3 0.3 0.9
0.4 0.3 0.9
0.5 0.3 0.9
0.6 0.3 0.9
0.7 0.3 0.9
0.8 0.3 0.9
0.9 0.3 0.9
1 0.3 0.9
1.1 0.3 0.9
1.2 0.3 0.9
1.3 0.3 0.9
1.4 0.3 0.9
1.5 0.3 0.9
1.6 0.3 0.9
1.7 0.3 0.9
1.8 0.3 0.9
1.9 0.3 0.9
-0.1 0.4 0.9
0 0.4 0.9
0.1 0.4 0.9
0.2 0.4 0.9
0.3 0.4 0.9
0.4 0.4 0.9
0.5 0.4 0.9
0.6 0.4 0.9
0.7 0.4 0.9
0.8 0.4 0.9
0.9 0.4 0.9
1 0.4 0.9
1.1 0.4 0.9
1.2 0.4 0.9
1.3 0.4 0.9
1.4 0.4 0.9
1.5 0.4 0.9
1.6 0.4 0.9
1.7 0.4 0.9
1.8 0.4 0.9
1.9 0.4 0.9
-0.1 0.5 0.9
0 0.5 0.9
0.1 0.5 0.9
0.2 0.5 0.9
0.3 0.5 0.9
0.4 0.5 0.9
0.5 0.5 0.9
0.6 0.5 0.9
0.7 0.5 0.9
0.8 0.5 0.9
0.9 0.5 0.9
1 0.5 0.9
1.1 0.5 0.9
1.2 0.5 0.9
1.3 0.5 0.9
1.4 0.5 0.9
1.5 0.5 0.9
1.6 0.5 0.9
1.7 0.5 0.9
1.8 0.5 0.9
1.9 0.5 0.9
-0.1 0.6 0.9
0 0.6 0.9
0.1 0.6 0.9
0.2 0.6 0.9
0.3 0.6 0.9
0.4 0.6 0.9
0.5 0.6 0.9
0.6 0.6 0.9
0.7 0.6 0.9
0.8 0.6 0.9
0.9 0.6 0.9
1 0.6 0.9
1.1 0.6 0.9
1.2 0.6 0.9
1.3 0.6 0.9
1.4 0.6 0.9
1.5 0.6 0.9
1.6 0.6 0.9
1.7 0.6 0.9
1.8 0.6 0.9
1.9 0.6 0.9
-0.1 0.7 0.9
0 0.7 0.9
0.1 0.7 0.9
0.2 0.7 0.9
0.3 0.7 0.9
0.4 0.7 0.9
0.5 0.7 0.9
0.6 0.7 0.9
0.7 0.7 0.9
0.8 0.7 0.9
0.9 0.7 0.9
1 0.7 0.9
1.1 0.7 0.9
1.2 0.7 0.9
1.3 0.7 0.9
1.4 0.7 0.9
1.5 0.7 0.9
1.6 0.7 0.9
1.7 0.7 0.9
1.8 0.7 0.9
1.9 0.7 0.9
-0.1 0.8 0.9
0 0.8 0.9
0.1 0.8 0.9
0.2 0.8 0.9
0.3 0.8 0.9
0.4 0.8 0.9
0.5 0.8 0.9
0.6 0.8 0.9
0.7 0.8 0.9
0.8 0.8 0.9
0.9 0.8 0.9
1 0.8 0.9
1.1 0.8 0.9
1.2 0.8 0.9
1.3 0.8 0.9
1.4 0.8 0.9
1.5 0.8 0.9
1.6 0.8 0.9
1.7 0.8 0.9
1.8 0.8 0.9
1.9 0.8 0.9
-0.1 0.9 0.9
0 0.9 0.9
0.1 0.9 0.9
0.2 0.9 0.9
0.3 0.9 0.9
0.4 0.9 0.9
0.5 0.9 0.9
0.6 0.9 0.9
0.7 0.9 0.9
0.8 0.9 0.9
0.9 0.9 0.9
1 0.9 0.9
1.1 0.9 0.9
1.2 0.9 0.9
1.3 0.9 0.9
1.4 0.9 0.9
1.5 0.9 0.9
1.6 0.9 0.9
1.7 0.9 0.9
1.8 0.9 0.9
1.9 0.9 0.9
-0.1 1 0.9
0 1 0.9
0.1 1 0.9
0.2 1 0.9
0.3 1 0.9
0.4 1 0.9
0.5 1 0.9
0.6 1 0.9
0.7 1 0.9
0.8 1 0.9
0.9 1 0.9
1 1 0.9
1.1 1 0.9
1.2 1 0.9
1.3 1 0.9
1.4 1 0.9
1.5 1 0.9
1.6 1 0.9
1.7 1 0.9
1.8 1 0.9
1.9 1 0.9
-0.1 1.1 0.9
0 1.1 0.9
0.1 1.1 0.9
0.2 1.1 0.9
0.3 1.1 0.9
0.4 1.1 0.9
0.5 1.1 0.9
0.6 1.1 0.9
0.7 1.1 0.9
0.8 1.1 0.9
0.9 1.1 0.9
1 1.1 0.9
1.1 1.1 0.9
1.2 1.1 0.9
1.3 1.1 0.9
1.4 1.1 0.9
1.5 1.1 0.9
1.6 1.1 0.9
1.7 1.1 0.9
1.8 1.1 0.9
1.9 1.1 0.9
-0.1 1.2 0.9
0 1.2 0.9
0.1 1.2 0.9
0.2 1.2 0.9
0.3 1.2 0.9
0.4 1.2 0.9
0.5 1.2 0.9
0.6 1.2 0.9
0.7 1.2 0.9
0.8 1.2 0.9
0.9 1.2 0.9
1 1.2 0.9
1.1 1.2 0.9
1.2 1.2 0.9
1.3 1.2 0.9
1.4 1.2 0.9
1.5 1.2 0.9
1.6 1.2 0.9
1.7 1.2 0.9
1.8 1.2 0.9
1.9 1.2 0.9
-0.1 1.3 0.9
0 1.3 0.9
0.1 1.3 0.9
0.2 1.3 0.9
0.3 1.3 0.9
0.4 1.3 0.9
0.5 1.3 0.9
0.6 1.3 0.9
0.7 1.3 0.9
0.8 1.3 0.9
0.9 1.3 0.9
1 1.3 0.9
1.1 1.3 0.9
1.2 1.3 0.9
1.3 1.3 0.9
1.4 1.3 0.9
1.5 1.3 0.9
1.6 1.3 0.9
1.7 1.3 0.9
1.8 1.3 0.9
1.9 1.3 0.9
-0.1 1.4 0.9
0 1.4 0.9
0.1 1.4 0.9
0.2 1.4 0.9
0.3 1.4 0.9
0.4 1.4 0.9
0.5 1.4 0.9
0.6 1.4 0.9
0.7 1.4 0.9
0.8 1.4 0.9
0.9 1.4 0.9
1 1.4 0.9
1.1 1.4 0.9
1.2 1.4 0.9
1.3 1.4 0.9
1.4 1.4 0.9
1.5 1.4 0.9
1.6 1.4 0.9
1.7 1.4 0.9
1.8 1.4 0.9
1.9 1.4 0.9
-0.1 1.5 0.9
0 1.5 0.9
0.1 1.5 0.9
0.2 1.5 0.9
0.3 1.5 0.9
0.4 1.5 0.9
0.5 1.5 0.9
0.6 1.5 0.9
0.7 1.5 0.9
0.8 1.5 0.9
0.9 1.5 0.9
1 1.5 0.9
1.1 1.5 0.9
1.2 1.5 0.9
1.3 1.5 0.9
1.4 1.5 0.9
1.5 1.5 0.9
1.6 1.5 0.9
1.7 1.5 0.9
1.8 1.5 0.9
1.9 1.5 0.9
-0.1 1.6 0.9
0 1.6 0.9
0.1 1.6 0.9
0.2 1.6 0.9
0.3 1.6 0.9
0.4 1.6 0.9
0.5 1.6 0.9
0.6 1.6 0.9
0.7 1.6 0.9
0.8 1.6 0.9
0.9 1.6 0.9
1 1.6 0.9
1.1 1.6 0.9
1.2 1.6 0.9
1.3 1.6 0.9
1.4 1.6 0.9
1.5 1.6 0.9
1.6 1.6 0.9
1.7 1.6 0.9
1.8 1.6 0.9
1.9 1.6 0.9
-0.1 1.7 0.9
0 1.7 0.9
0.1 1.7 0.9
0.2 1.7 0.9
0.3 1.7 0.9
0.4 1.7 0.9
0.5 1.7 0.9
0.6 1.7 0.9
0.7 1.7 0.9
0.8 1.7 0.9
0.9 1.7 0.9
1 1.7 0.9
1.1 1.7 0.9
1.2 1.7 0.9
1.3 1.7 0.9
1.4 1.7 0.9
1.5 1.7 0.9
1.6 1.7 0.9
1.7 1.7 0.9
1.8 1.7 0.9
1.9 1.7 0.9
-0.1 1.8 0.9
0 1.8 0.9
0.1 1.8 0.9
0.2 1.8 0.9
0.3 1.8 0.9
0.4 1.8 0.9
0.5 1.8 0.9
0.6 1.8 0.9
0.7 1.8 0.9
0.8 1.8 0.9
0.9 1.8 0.9
1 1.8 0.9
1.1 1.8 0.9
1.2 1.8 0.9
1.3 1.8 0.9
1.4 1.8 0.9
1.5 1.8 0.9
1.6 1.8 0.9
1.7 1.8 0.9
1.8 1.8 0.9
1.9 1.8 0.9
-0.1 1.9 0.9
0 1.9 0.9
0.1 1.9 0.9
0.2 1.9 0.9
0.3 1.9 0.9
0.4 1.9 0.9
0.5 1.9 0.9
0.6 1.9 0.9
0.7 1.9 0.9
0.8 1.9 0.9
0.9 1.9 0.9
1 1.9 0.9
1.1 1.9 0.9
1.2 1.9 0.9
1.3 1.9 0.9
1.4 1.9 0.9
1.5 1.9 0.9
1.6 1.9 0.9
1.7 1.9 0.9
1.8 1.9 0.9
1.9 1.9 0.9
-0.1 -0.1 1
0 -0.1 1
0.1 -0.1 1
0.2 -0.1 1
0.3 -0.1 1
0.4 -0.1 1
0.5 -0.1 1
0.6 -0.1 1
0.7 -0.1 1
0.8 -0.1 1
0.9 -0.1 1
1 -0.1 1
1.1 -0.1 1
1.2 -0.1 1
1.3 -0.1 1
1.4 -0.1 1
1.5 -0.1 1
1.6 -0.1 1
1.7 -0.1 1
1.8 -0.1 1
1.9 -0.1 1
-0.1 0 1
0 0 1
0.1 0 1
0.2 0 1
0.3 0 1
0.4 0 1
0.5 0 1
0.6 0 1
0.7 0 1
0.8 0 1
0.9 0 1
1 0 1
1.1 0 1
1.2 0 1
1.3 0 1
1.4 0 1
1.5 0 1
1.6 0 1
1.7 0 1
1.8 0 1
1.9 0 1
-0.1 0.1 1
0 0.1 1
0.1 0.1 1
0.2 0.1 1
0.3 0.1 1
0.4 0.1 1
0.5 0.1 1
0.6 0.1 1
0.7 0.1 1
0.8 0.1 1
0.9 0.1 1
1 0.1 1
1.1 0.1 1
1.2 0.1 1
1.3 0.1 1
1.4 0.1 1
1.5 0.1 1
1.6 0.1 1
1.7 0.1 1
1.8 0.1 1
1.9 0.1 1
-0.1 0.2 1
0 0.2 1
0.1 0.2 1
0.2 0.2 1
0.3 0.2 1
0.4 0.2 1
0.5 0.2 1
0.6 0.2 1
0.7 0.2 1
0.8 0.2 1
0.9 0.2 1
1 0.2 1
1.1 0.2 1
1.2 0.2 1
1.3 0.2 1
1.4 0.2 1
1.5 0.2 1
1.6 0.2 1
1.7 0.2 1
1.8 0.2 1
1.9 0.2 1
-0.1 0.3 1
0 0.3 1
0.1 0.3 1
0.2 0.3 1
0.3 0.3 1
0.4 0.3 1
0.5 0.3 1
0.6 0.3 1
0.7 0.3 1
0.8 0.3 1
0.9 0.3 1
1 0.3 1
1.1 0.3 1
1.2 0.3 1
1.3 0.3 1
1.4 0.3 1
1.5 0.3 1
1.6 0.3 1
1.7 0.3 1
1.8 0.3 1
1.9 0.3 1
-0.1 0.4 1
0 0.4 1
0.1 0.4 1
0.2 0.4 1
0.3 0.4 1
0.4 0.4 1
0.5 0.4 1
0.6 0.4 1
0.7 0.4 1
0.8 0.4 1
0.9 0.4 1
1 0.4 1
1.1 0.4 1
1.2 0.4 1
1.3 0.4 1
1.4 0.4 1
1.5 0.4 1
1.6 0.4 1
1.7 0.4 1
1.8 0.4 1
1.9 0.4 1
-0.1 0.5 1
0 0.5 1
0.1 0.5 1
0.2 0.5 1
0.3 0.5 1
0.4 0.5 1
0.5 0.5 1
0.6 0.5 1
0.7 0.5 1
0.8 0.5 1
0.9 0.5 1
1 0.5 1
1.1 0.5 1
1.2 0.5 1
1.3 0.5 1
1.4 0.5 1
1.5 0.5 1
1.6 0.5 1
1.7 0.5 1
1.8 0.5 1
1.9 0.5 1
-0.1 0.6 1
0 0.6 1
0.1 0.6 1
0.2 0.6 1
0.3 0.6 1
0.4 0.6 1
0.5 0.6 1
0.6 0.6 1
0.7 0.6 1
0.8 0.6 1
0.9 0.6 1
1 0.6 1
1.1 0.6 1
1.2 0.6 1
1.3 0.6 1
1.4 0.6 1
1.5 0.6 1
1.6 0.6 1
1.7 0.6 1
1.8 0.6 1
1.9 0.6 1
-0.1 0.7 1
0 0.7 1
0.1 0.7 1
0.2 0.7 1
0.3 0.7 1
0.4 0.7 1
0.5 0.7 1
0.6 0.7 1
0.7 0.7 1
0.8 0.7 1
0.9 0.7 1
1 0.7 1
1.1 0.7 1
1.2 0.7 1
1.3 0.7 1
1.4 0.7 1
1.5 0.7 1
1.6 0.7 1
1.7 0.7 1
1.8 0.7 1
1.9 0.7 1
-0.1 0.8 1
0 0.8 1
0.1 0.8 1
0.2 0.8 1
0.3 0.8 1
0.4 0.8 1
0.5 0.8 1
0.6 0.8 1
0.7 0.8 1
0.8 0.8 1
0.9 0.8 1
1 0.8 1
1.1 0.8 1
1.2 0.8 1
1.3 0.8 1
1.4 0.8 1
1.5 0.8 1
1.6 0.8 1
1.7 0.8 1
1.8 0.8 1
1.9 0.8 1
-0.1 0.9 1
0 0.9 1
0.1 0.9 1
0.2 0.9 1
0.3 0.9 1
0.4 0.9 1
0.5 0.9 1
0.6 0.9 1
0.7 0.9 1
0.8 0.9 1
0.9 0.9 1
1 0.9 1
1.1 0.9 1
1.2 0.9 1
1.3 0.9 1
1.4 0.9 1
1.5 0.9 1
1.6 0.9 1
1.7 0.9 1
1.8 0.9 1
1.9 0.9 1
-0.1 1 1
0 1 1
0.1 1 1
0.2 1 1
0.3 1 1
0.4 1 1
0.5 1 1
0.6 1 1
0.7 1 1
0.8 1 1
0.9 1 1
1 1 1
1.1 1 1
1.2 1 1
1.3 1 1
1.4 1 1
1.5 1 1
1.6 1 1
1.7 1 1
1.8 1 1
1.9 1 1
-0.1 1.1 1
0 1.1 1
0.1 1.1 1
0.2 1.1 1
0.3 1.1 1
0.4 1.1 1
0.5 1.1 1
0.6 1.1 1
0.7 1.1 1
0.8 1.1 1
0.9 1.1 1
1 1.1 1
1.1 1.1 1
1.2 1.1 1
1.3 1.1 1
1.4 1.1 1
1.5 1.1 1
1.6 1.1 1
1.7 1.1 1
1.8 1.1 1
1.9 1.1 1
-0.1 1.2 1
0 1.2 1
0.1 1.2 1
0.2 1.2 1
0.3 1.2 1
0.4 1.2 1
0.5 1.2 1
0.6 1.2 1
0.7 1.2 1
0.8 1.2 1
0.9 1.2 1
1 1.2 1
1.1 1.2 1
1.2 1.2 1
1.3 1.2 1
1.4 1.2 1
1.5 1.2 1
1.6 1.2 1
1.7 1.2 1
1.8 1.2 1
1.9 1.2 1
-0.1 1.3 1
0 1.3 1
0.1 1.3 1
0.2 1.3 1
0.3 1.3 1
0.4 1.3 1
0.5 1.3 1
0.6 1.3 1
0.7 1.3 1
0.8 1.3 1
0.9 1.3 1
1 1.3 1
1.1 1.3 1
1.2 1.3 1
1.3 1.3 1
1.4 1.3 1
1.5 1.3 1
1.6 1.3 1
1.7 1.3 1
1.8 1.3 1
1.9 1.3 1
-0.1 1.4 1
0 1.4 1
0.1 1.4 1
0.2 1.4 1
0.3 1.4 1
0.4 1.4 1
0.5 1.4 1
0.6 1.4 1
0.7 1.4 1
0.8 1.4 1
0.9 1.4 1
1 1.4 1
1.1 1.4 1
1.2 1.4 1
1.3 1.4 1
1.4 1.4 1
1.5 1.4 1
1.6 1.4 1
1.7 1.4 1
1.8 1.4 1
1.9 1.4 1
-0.1 1.5 1
0 1.5 1
0.1 1.5 1
0.2 1.5 1
0.3 1.5 1
0.4 1.5 1
0.5 1.5 1
0.6 1.5 1
0.7 1.5 1
0.8 1.5 1
0.9 1.5 1
1 1.5 1
1.1 1.5 1
1.2 1.5 1
1.3 1.5 1
1.4 1.5 1
1.5 1.5 1
1.6 1.5 1
1.7 1.5 1
1.8 1.5 1
1.9 1.5 1
-0.1 1.6 1
0 1.6 1
0.1 1.6 1
0.2 1.6 1
0.3 1.6 1
0.4 1.6 1
0.5 1.6 1
0.6 1.6 1
0.7 1.6 1
0.8 1.6 1
0.9 1.6 1
1 1.6 1
1.1 1.6 1
1.2 1.6 1
1.3 1.6 1
1.4 1.6 1
1.5 1.6 1
1.6 1.6 1
1.7 1.6 1
1.8 1.6 1
1.9 1.6 1
-0.1 1.7 1
0 1.7 1
0.1 1.7 1
0.2 1.7 1
0.3 1.7 1
0.4 1.7 1
0.5 1.7 1
0.6 1.7 1
0.7 1.7 1
0.8 1.7 1
0.9 1.7 1
1 1.7 1
1.1 1.7 1
1.2 1.7 1
1.3 1.7 1
1.4 1.7 1
1.5 1.7 1
1.6 1.7 1
1.7 1.7 1
1.8 1.7 1
1.9 1.7 1
-0.1 1.8 1
0 1.8 1
0.1 1.8 1
0.2 1.8 1
0.3 1.8 1
0.4 1.8 1
0.5 1.8 1
0.6 1.8 1
0.7 1.8 1
0.8 1.8 1
0.9 1.8 1
1 1.8 1
1.1 1.8 1
1.2 1.8 1
1.3 1.8 1
1.4 1.8 1
1.5 1.8 1
1.6 1.8 1
1.7 1.8 1
1.8 1.8 1
1.9 1.8 1
-0.1 1.9 1
0 1.9 1
0.1 1.9 1
0.2 1.9 1
0.3 1.9 1
0.4 1.9 1
0.5 1.9 1
0.6 1.9 1
0.7 1.9 1
0.8 1.9 1
0.9 1.9 1
1 1.9 1
1.1 1.9 1
1.2 1.9 1
1.3 1.9 1
1.4 1.9 1
1.5 1.9 1
1.6 1.9 1
1.7 1.9 1
1.8 1.9 1
1.9 1.9 1
-0.1 -0.1 1.1
0 -0.1 1.1
0.1 -0.1 1.1
0.2 -0.1 1.1
0.3 -0.1 1.1
0.4 -0.1 1.1
0.5 -0.1 1.1
0.6 -0.1 1.1
0.7 -0.1 1.1
0.8 -0.1 1.1
0.9 -0.1 1.1
1 -0.1 1.1
1.1 -0.1 1.1
1.2 -0.1 1.1
1.3 -0.1 1.1
1.4 -0.1 1.1
1.5 -0.1 1.1
1.6 -0.1 1.1
1.7 -0.1 1.1
1.8 -0.1 1.1
1.9 -0.1 1.1
-0.1 0 1.1
0 0 1.1
0.1 0 1.1
0.2 0 1.1
0.3 0 1.1
0.4 0 1.1
0.5 0 1.1
0.6 0 1.1
0.7 0 1.1
0.8 0 1.1
0.9 0 1.1
1 0 1.1
1.1 0 1.1
1.2 0 1.1
1.3 0 1.1
1.4 0 1.1
1.5 0 1.1
[...]
CELL_DATA 4000
VECTORS velocity double 
-1.5866e-05 -0.000198855 0.0031338
-3.31562e-05 -0.000239623 0.00399598
-5.05081e-05 -0.000258211 0.0040221
-6.2732e-05 -0.000268041 0.00401899
-7.17849e-05 -0.000271933 0.00403139
-7.99377e-05 -0.00027314 0.00403546
-8.79519e-05 -0.000273445 0.00402308
-9.5514e-05 -0.000273537 0.00399478
-0.000101651 -0.000273589 0.00395239
-0.000105187 -0.000273525 0.00389763
-0.000104914 -0.000273172 0.00383216
-9.97776e-05 -0.000272257 0.00375823
-8.91087e-05 -0.000270425 0.00367899
-7.30118e-05 -0.000267252 0.00359866
-5.28361e-05 -0.00026229 0.00352249
-3.17924e-05 -0.000255009 0.00345835
-1.61951e-05 -0.000244767 0.00342408
-1.59755e-05 -0.000231185 0.00345553
-3.70184e-05 -0.000215453 0.00352103
-1.85092e-05 -0.000180584 0.00283941
-2.74411e-05 -0.000553898 0.00382565
-6.85262e-05 -0.000702402 0.00447228
-0.000103799 -0.000754724 0.00420226
-0.000127679 -0.000780371 0.00408896
-0.00014478 -0.000791068 0.00408233
-0.000159101 -0.000794868 0.00408665
-0.00017212 -0.000796084 0.0040708
-0.000183697 -0.000796474 0.00403124
-0.000192696 -0.000796515 0.00396997
-0.000197609 -0.000796082 0.00388944
-0.000196741 -0.000794725 0.00379202
-0.000188459 -0.000791744 0.00368108
-0.000171471 -0.000786275 0.00356125
-0.000145356 -0.000777287 0.00343874
-0.000111054 -0.000763656 0.00332192
-7.16538e-05 -0.000744215 0.00322631
-3.43795e-05 -0.000717799 0.00319722
-1.42675e-05 -0.000683776 0.00335098
-2.90475e-05 -0.000641474 0.00376795
-1.45237e-05 -0.000522868 0.00342691
-6.06182e-05 -0.00103205 0.00339384
-0.000129279 -0.00134053 0.00329812
-0.000178457 -0.00143702 0.00270052
-0.000207235 -0.00148216 0.00249078
-0.000224898 -0.00150153 0.00246755
-0.000238007 -0.00150894 0.00247277
-0.000249085 -0.00151161 0.00245815
-0.000258268 -0.0015126 0.00241686
-0.000264354 -0.00151273 0.00235059
-0.000265522 -0.00151183 0.00226188
-0.000259654 -0.00150908 0.00215335
-0.000244654 -0.00150331 0.00202863
-0.000218673 -0.001493 0.00189309
-0.000180747 -0.00147647 0.00175393
-0.000131363 -0.00145184 0.00162108
-7.32977e-05 -0.00141734 0.00151469
-1.40242e-05 -0.00137142 0.00149841
2.80542e-05 -0.00131356 0.00175352
2.28186e-05 -0.00123766 0.00252019
1.14093e-05 -0.000989482 0.00296975
-0.000102638 -0.00161005 0.0026009
-0.000204182 -0.00213049 0.0015963
-0.000268893 -0.00228293 0.000678199
-0.000302057 -0.00235162 0.000386854
-0.000318664 -0.00238161 0.000351427
-0.000328408 -0.0023937 0.000358566
-0.000335183 -0.00239847 0.00034625
-0.000339538 -0.00240042 0.000305033
-0.000340222 -0.0024009 0.000236315
-0.000335089 -0.00239961 0.000142555
-0.000321553 -0.00239538 2.64973e-05
-0.000296957 -0.00238645 -0.000108071
-0.000258885 -0.00237054 -0.000255096
-0.000205742 -0.00234513 -0.000406266
-0.000137676 -0.00230761 -0.000550113
-5.74196e-05 -0.00225546 -0.000662967
2.65398e-05 -0.00218696 -0.000667073
9.17812e-05 -0.00210122 -0.000325548
9.3937e-05 -0.00198248 0.000775339
4.69685e-05 -0.0015563 0.00216244
-0.000152799 -0.00227264 0.00141165
-0.000293399 -0.00305828 -0.000736315
-0.00037627 -0.00328072 -0.00202483
-0.000414197 -0.00337777 -0.00240688
-0.000429015 -0.00342058 -0.00245643
-0.000434184 -0.00343851 -0.00244783
-0.000435271 -0.00344611 -0.00245771
-0.000433354 -0.00344958 -0.00249841
-0.000427121 -0.00345077 -0.00256899
-0.000414042 -0.00344937 -0.00266716
-0.000390974 -0.00344379 -0.00278997
-0.000354541 -0.00343165 -0.00293341
-0.000301651 -0.00340977 -0.00309083
-0.00023008 -0.00337455 -0.00325258
-0.000139455 -0.0033224 -0.00340541
-3.28101e-05 -0.00325002 -0.0035218
8.01141e-05 -0.00315518 -0.00350992
0.000171537 -0.00303632 -0.0030725
0.000180591 -0.00286228 -0.00159061
9.02953e-05 -0.00220796 0.000962452
-0.000213146 -0.00299484 -0.000317219
-0.000400596 -0.00409663 -0.00395196
-0.000504945 -0.00440437 -0.00570611
-0.000548134 -0.00453496 -0.00620332
-0.000560367 -0.00459277 -0.0062733
-0.000559663 -0.00461765 -0.00626499
-0.000553594 -0.00462879 -0.00627292
-0.00054387 -0.00463435 -0.00631298
-0.000529145 -0.00463682 -0.00638493
-0.000506504 -0.00463586 -0.00648676
-0.000472155 -0.00462947 -0.00661546
-0.000421789 -0.00461448 -0.00676651
-0.000351364 -0.00458671 -0.00693267
-0.000257864 -0.0045413 -0.007103
-0.000140394 -0.00447324 -0.00726204
-2.03319e-06 -0.00437817 -0.00737801
0.000145571 -0.00425315 -0.00734202
0.000268482 -0.00409477 -0.00678474
0.000285414 -0.00385114 -0.00482989
0.000142707 -0.00292039 -0.000772626
-0.000285194 -0.00373063 -0.00273593
-0.000528269 -0.00519094 -0.00829095
-0.000657725 -0.00559897 -0.0106346
-0.000706643 -0.00576789 -0.0112802
-0.000715323 -0.00584249 -0.0113796
-0.000707274 -0.00587523 -0.0113743
-0.000692481 -0.00589058 -0.0113812
-0.000673398 -0.00589887 -0.0114208
-0.000648669 -0.00590327 -0.0114937
-0.000614951 -0.00590354 -0.011598
-0.000567673 -0.00589728 -0.0117311
-0.000501427 -0.00588042 -0.0118877
-0.000410936 -0.00584764 -0.0120598
-0.000292005 -0.00579253 -0.0122353
-0.000142987 -0.00570837 -0.0123962
3.30261e-05 -0.00558903 -0.0125057
0.000222441 -0.00543035 -0.0124347
0.000383423 -0.00522594 -0.0117249
0.000410278 -0.00489752 -0.00917824
0.000205139 -0.00364918 -0.0031911
-0.000369098 -0.00440445 -0.00598877
-0.000676589 -0.00624804 -0.0139765
-0.000834609 -0.0067688 -0.0170568
-0.000889505 -0.00697954 -0.0178909
-0.000893566 -0.00707183 -0.0180309
-0.000876697 -0.00711272 -0.0180326
-0.000851623 -0.00713259 -0.01804
-0.000821719 -0.00714414 -0.0180796
-0.000785733 -0.0071513 -0.0181528
-0.000739812 -0.00715389 -0.0182581
-0.00067844 -0.00714918 -0.0183931
-0.000594991 -0.00713229 -0.0185523
-0.000482553 -0.00709661 -0.0187266
-0.000335371 -0.00703393 -0.0189023
-0.000150422 -0.0069352 -0.0190591
6.93831e-05 -0.00679198 -0.0191541
0.000308325 -0.00659768 -0.019034
0.000515087 -0.00634154 -0.0181327
0.000554686 -0.00591355 -0.0148538
0.000277343 -0.00432097 -0.00643496
-0.000463198 -0.00490445 -0.0101952
-0.000842524 -0.00712623 -0.0211939
-0.00103169 -0.00776651 -0.0251782
-0.00109238 -0.00801969 -0.026247
-0.00109056 -0.0081288 -0.026441
-0.00106343 -0.00817722 -0.026454
-0.0010268 -0.00820142 -0.0264636
-0.000985076 -0.00821649 -0.0265035
-0.000937144 -0.00822723 -0.0265768
-0.000878651 -0.0082335 -0.0266817
-0.000803071 -0.00823233 -0.0268158
-0.000702386 -0.0082183 -0.0269739
-0.000567702 -0.0081835 -0.0271457
-0.000390959 -0.00811768 -0.0273158
-0.000167202 -0.00800897 -0.0274611
0.000101743 -0.00784544 -0.0275322
0.000397776 -0.00761693 -0.0273465
0.000658752 -0.00730554 -0.0262087
0.000714902 -0.00676598 -0.0220382
0.000357451 -0.00482686 -0.0106221
-0.000563081 -0.00507957 -0.0154165
-0.00101821 -0.0076294 -0.0300415
-0.00123906 -0.00838581 -0.0351102
-0.00130448 -0.00867723 -0.0364635
-0.00129555 -0.00879953 -0.0367252
-0.0012571 -0.00885335 -0.0367545
-0.00120822 -0.00888094 -0.0367683
-0.00115447 -0.00889934 -0.0368089
-0.00109486 -0.00891417 -0.0368816
-0.00102466 -0.00892554 -0.0369847
-0.000936467 -0.00893048 -0.0371155
-0.000820657 -0.00892332 -0.0372686
-0.000666029 -0.00889513 -0.0374331
-0.000461532 -0.00883369 -0.0375917
-0.000199038 -0.00872382 -0.0377185
0.000121614 -0.00854899 -0.0377561
0.000480972 -0.00829303 -0.0374883
0.000804257 -0.00792801 -0.0360653
0.000882051 -0.00727057 -0.0308299
0.000441025 -0.00501945 -0.015814
-0.00066046 -0.00474421 -0.0216112
-0.00118865 -0.00750933 -0.0404629
-0.00143816 -0.00836274 -0.0467963
-0.00150602 -0.00868063 -0.0484826
-0.00148875 -0.00880846 -0.0488241
-0.0014387 -0.0088634 -0.0488736
-0.00137792 -0.00889236 -0.0488934
-0.00131314 -0.00891336 -0.0489351
-0.00124362 -0.00893239 -0.0490063
-0.00116445 -0.00895002 -0.0491062
-0.00106758 -0.00896379 -0.0492317
-0.000941854 -0.00896827 -0.0493772
-0.000773582 -0.0089543 -0.0495309
-0.000547962 -0.0089082 -0.0496744
-0.00025239 -0.00881145 -0.0497785
0.000117489 -0.00864169 -0.0497771
0.000542158 -0.00837402 -0.0494135
0.000934023 -0.00796565 -0.0476579
0.00103983 -0.00719434 -0.0411814
0.000519914 -0.00471642 -0.0219722
-0.000741831 -0.00369598 -0.0285884
-0.0013294 -0.00648294 -0.0521768
-0.00159862 -0.00739101 -0.0599342
-0.00166456 -0.00771313 -0.061993
-0.00163794 -0.0078338 -0.0624212
-0.00157728 -0.00788319 -0.0624911
-0.00150673 -0.00791022 -0.0625172
-0.00143376 -0.00793231 -0.0625602
-0.00135808 -0.00795507 -0.0626294
-0.00127503 -0.00797954 -0.0627249
-0.00117631 -0.00800435 -0.062844
-0.00104979 -0.00802524 -0.0629808
-0.000879473 -0.00803414 -0.0631238
-0.000646411 -0.00801715 -0.0632534
-0.000331852 -0.00795341 -0.0633376
7.54608e-05 -0.00781424 -0.0633006
0.000559382 -0.00756308 -0.0628381
0.00102132 -0.00713577 -0.0607113
0.00116284 -0.00627163 -0.0528317
0.000581422 -0.00371723 -0.0289131
-0.000786734 -0.00175305 -0.0359785
-0.00140297 -0.00427195 -0.0646282
-0.0016745 -0.00516045 -0.073919
-0.00173167 -0.00545077 -0.076371
-0.0016952 -0.00554596 -0.0768836
-0.00162681 -0.00558105 -0.0769691
-0.00155099 -0.00560182 -0.0769984
-0.00147522 -0.00562263 -0.0770413
-0.00139965 -0.00564771 -0.0771078
-0.00132045 -0.00567855 -0.0771983
-0.00122989 -0.00571522 -0.0773112
-0.00111595 -0.00575601 -0.0774413
-0.000961222 -0.00579548 -0.0775783
-0.000743066 -0.00582216 -0.077703
-0.000435388 -0.00581511 -0.0777823
-1.67965e-05 -0.00574113 -0.0777287
0.0005059 -0.00554999 -0.0771833
0.00102931 -0.00514911 -0.0746683
0.00121455 -0.00424081 -0.065261
0.000607273 -0.00183884 -0.0362788
-0.000765054 0.00118532 -0.0432315
-0.00135482 -0.000671767 -0.0769784
-0.00159973 -0.00142498 -0.087826
-0.00163863 -0.00163136 -0.0906599
-0.00159325 -0.00167763 -0.0912411
-0.00152276 -0.00168853 -0.0913316
-0.00144925 -0.00169843 -0.0913575
-0.00137917 -0.00171508 -0.0913969
-0.00131305 -0.00174017 -0.0914589
-0.00124823 -0.00177531 -0.0915442
-0.00117887 -0.00182244 -0.0916524
-0.00109457 -0.00188331 -0.0917809
-0.000978723 -0.00195728 -0.0919223
-0.000806631 -0.0020384 -0.092061
-0.000545806 -0.00211065 -0.0921647
-0.00016173 -0.00214105 -0.0921359
0.000355812 -0.00206843 -0.0915519
0.000912078 -0.00176735 -0.0886683
0.00114487 -0.000906379 -0.0776795
0.000572434 0.00102743 -0.0435346
-0.000634625 0.00505197 -0.0496155
-0.00110873 0.00435485 -0.0879611
-0.00128387 0.00390298 -0.100201
-0.00129265 0.00384778 -0.103343
-0.00124179 0.00387618 -0.103957
-0.00117863 0.0038987 -0.104034
-0.00111895 0.00390359 -0.104047
-0.0010668 0.00389392 -0.104078
-0.00102284 0.00387174 -0.104133
-0.00098598 0.00383597 -0.104213
-0.000953287 0.00378262 -0.104319
-0.000918048 0.00370622 -0.104453
-0.000867478 0.00360101 -0.104613
-0.000779216 0.00346401 -0.104792
-0.000618048 0.00330014 -0.104965
-0.000337662 0.00313233 -0.105025
9.64136e-05 0.00302161 -0.104484
0.000619968 0.00311925 -0.101321
0.000890262 0.00377837 -0.0888683
0.000445131 0.0048314 -0.0499599
-0.000332719 0.00948481 -0.0538438
-0.000560689 0.0105217 -0.0948866
-0.000610308 0.0105858 -0.107783
-0.000577802 0.0107552 -0.110987
-0.000529495 0.0108795 -0.111553
-0.000488551 0.0109408 -0.111591
-0.000459616 0.0109625 -0.111581
-0.000442894 0.0109619 -0.111596
-0.000438391 0.010946 -0.111641
-0.000446825 0.0109144 -0.111714
-0.000468554 0.010862 -0.111821
-0.000502352 0.01078 -0.111966
-0.000542665 0.0106563 -0.112159
-0.000575481 0.0104773 -0.112404
-0.000571889 0.0102311 -0.11269
-0.000483086 0.00991804 -0.112917
-0.000252065 0.00957619 -0.112553
0.000113338 0.00935167 -0.109381
0.000370319 0.00957618 -0.0961528
0.00018516 0.00923731 -0.0542707
0.000225962 0.0136346 -0.0520238
0.000412092 0.016939 -0.0891597
0.000543295 0.017734 -0.10014
0.000617363 0.0181784 -0.102632
0.000644219 0.0184032 -0.102957
0.000638625 0.0185011 -0.102909
0.000611388 0.0185387 -0.102864
0.000567632 0.0185482 -0.10286
0.000508517 0.0185413 -0.102892
0.000432337 0.0185189 -0.102958
0.00033568 0.0184758 -0.103063
0.000214232 0.0184017 -0.10322
6.3949e-05 0.0182805 -0.103447
-0.000115292 0.0180899 -0.103767
-0.000313739 0.0178008 -0.104192
-0.000501568 0.0173818 -0.104657
-0.000622577 0.0168209 -0.104701
-0.000620596 0.0161971 -0.102319
-0.000516782 0.0157115 -0.0908633
-0.000258391 0.0134191 -0.0525498
0.00109226 0.0159089 -0.0302448
0.00184017 0.0216064 -0.0442322
0.00216698 0.0231826 -0.0468457
0.00224994 0.0238664 -0.0468779
0.00221327 0.0241615 -0.0465682
0.00212009 0.024282 -0.0463637
0.00199843 0.0243308 -0.0462726
0.00185937 0.0243498 -0.0462494
0.00170557 0.0243532 -0.0462684
0.00153551 0.0243431 -0.0463239
0.00134439 0.0243156 -0.0464222
0.001124 0.0242613 -0.0465787
0.000862363 0.0241646 -0.0468195
0.000542938 0.024001 -0.0471816
0.00014621 0.0237325 -0.047713
-0.000344797 0.0233029 -0.0484451
-0.000927446 0.0226417 -0.0492589
-0.00152954 0.0217005 -0.0494197
-0.00183615 0.0203722 -0.0462495
-0.000918075 0.0157683 -0.0308507
0.00205749 0.0139348 0.0595067
0.0032965 0.0205084 0.108164
0.00369061 0.022278 0.122109
0.00366692 0.0229485 0.125984
0.00347827 0.0232178 0.127135
0.00323384 0.0233261 0.127505
0.00297463 0.0233723 0.127629
0.00271389 0.0233938 0.127664
0.0024538 0.0234028 0.127656
0.00219195 0.023402 0.127614
0.00192268 0.0233893 0.127535
0.00163643 0.0233584 0.127405
0.00131725 0.0232987 0.127199
0.000938345 0.0231918 0.126877
0.000454583 0.0230067 0.126363
-0.000207219 0.0226917 0.1255
-0.00114657 0.0221641 0.123846
-0.00238564 0.0213001 0.119738
-0.00332339 0.0196894 0.106247
-0.0016617 0.0138384 0.0588375
0.00178448 0.00696738 0.388565
0.00277191 0.0102542 0.526939
0.00291997 0.011139 0.550884
0.00269848 0.0114742 0.555425
0.00237709 0.0116089 0.556451
0.00206022 0.011663 0.556726
0.00177797 0.0116862 0.556806
0.00153288 0.0116969 0.556825
0.00131864 0.0117014 0.556816
0.00112691 0.011701 0.556787
0.000948826 0.0116946 0.556737
0.000774505 0.0116792 0.556659
0.000590558 0.0116494 0.55654
0.00037508 0.0115959 0.556356
8.82642e-05 0.0115034 0.556053
-0.00034442 0.0113458 0.55549
-0.00104534 0.011082 0.554156
-0.00209101 0.01065 0.549459
-0.00292432 0.00984471 0.525749
-0.00146216 0.00691919 0.387885
3.0631e-06 -0.000140237 0.00345258
2.25656e-06 -0.000165709 0.00441533
-5.2683e-06 -0.000176487 0.00445598
-1.41802e-05 -0.000182306 0.00445843
-2.45963e-05 -0.000184444 0.00447537
-3.723e-05 -0.000185016 0.0044824
-5.19281e-05 -0.000185228 0.00447152
-6.78207e-05 -0.000185534 0.00444361
-8.36836e-05 -0.00018603 0.00440064
-9.80875e-05 -0.000186668 0.00434417
-0.000109527 -0.000187314 0.00427561
-0.000116425 -0.000187706 0.00419698
-0.000117326 -0.000187495 0.00411133
-0.000111467 -0.000186253 0.00402302
-9.92545e-05 -0.000183454 0.00393796
-8.3105e-05 -0.000178578 0.00386527
-6.87191e-05 -0.000171206 0.0038249
-6.47586e-05 -0.000161168 0.00385556
-7.63547e-05 -0.000149522 0.00391861
-3.81773e-05 -0.000121739 0.00315709
9.14836e-07 -0.000418914 0.00430158
-1.20026e-05 -0.000524412 0.00510769
-2.91375e-05 -0.000557831 0.00484992
-4.46043e-05 -0.000573739 0.00474079
-6.03213e-05 -0.0005798 0.00473988
-7.81224e-05 -0.000581568 0.00474841
-9.8274e-05 -0.000582122 0.00473463
-0.000119939 -0.000582699 0.00469531
-0.000141708 -0.00058363 0.00463269
-0.000161774 -0.000584783 0.00454903
-0.000178037 -0.000585779 0.00444639
-0.000188201 -0.000586009 0.00432778
-0.000189981 -0.000584624 0.00419772
-0.000181727 -0.000580528 0.00406261
-0.000163144 -0.000572495 0.00393169
-0.000136405 -0.000559275 0.00382254
-0.000107915 -0.000539944 0.00378447
-9.02797e-05 -0.000514701 0.00394066
-9.42784e-05 -0.000483509 0.00436407
-4.71392e-05 -0.000391503 0.00389493
-1.97104e-05 -0.000834176 0.00398705
-5.05228e-05 -0.00107029 0.00406117
-7.70415e-05 -0.00113652 0.00346923
-9.61118e-05 -0.00116594 0.00326284
-0.00011279 -0.00117746 0.00324662
-0.000130651 -0.0011811 0.00325718
-0.000150649 -0.00118227 0.00324523
-0.000172142 -0.00118318 0.00320433
-0.000193614 -0.00118445 0.00313643
-0.000213 -0.0011859 0.00304389
-0.000227833 -0.00118689 0.0029289
-0.000235315 -0.00118636 0.00279467
-0.000232509 -0.00118282 0.00264632
-0.000217115 -0.00117446 0.00249129
-0.000188223 -0.0011592 0.0023405
-0.000147666 -0.00113508 0.00221652
-0.000102591 -0.00110084 0.00218843
-6.85238e-05 -0.00105698 0.00244788
-6.47375e-05 -0.000999509 0.00323208
-3.23687e-05 -0.000799627 0.00355032
-4.85179e-05 -0.00138816 0.00333323
-0.000102448 -0.00181241 0.00250866
-0.000140306 -0.00192395 0.00159169
-0.000163103 -0.00197116 0.00130437
-0.000179901 -0.00199003 0.00127793
-0.000196524 -0.00199649 0.0012919
-0.000214841 -0.00199869 0.00128306
-0.00023447 -0.00200014 0.00124254
-0.000253828 -0.0020018 0.00117201
-0.000270583 -0.00200345 0.00107373
-0.000281811 -0.00200412 0.000949945
-0.000284082 -0.00200225 0.00080389
-0.000273812 -0.00199566 0.000641247
-0.000247918 -0.00198159 0.000470515
-0.000204963 -0.0019571 0.000304326
-0.000146708 -0.00191933 0.000169245
-8.14636e-05 -0.00186686 0.000149578
-2.86821e-05 -0.00180014 0.000495896
-1.82527e-05 -0.00170669 0.00162391
-9.12634e-06 -0.00134595 0.00287713
-8.51179e-05 -0.00208867 0.00230029
-0.000168105 -0.00276755 0.000339764
-0.000219903 -0.00294015 -0.000952921
-0.000246928 -0.00301056 -0.00132984
-0.000263361 -0.00303923 -0.00136801
-0.000277769 -0.00304967 -0.00135082
-0.00029328 -0.00305358 -0.00135624
-0.000309837 -0.00305589 -0.00139586
-0.00032579 -0.00305809 -0.00146834
-0.000338475 -0.0030599 -0.00157164
-0.000344452 -0.00306005 -0.00170351
-0.000339593 -0.00305639 -0.00186058
-0.000319421 -0.00304587 -0.00203675
-0.000280053 -0.00302473 -0.00222226
-0.000219325 -0.00298882 -0.00240248
-0.00013924 -0.0029344 -0.00254654
-4.9539e-05 -0.00285942 -0.00255454
2.52577e-05 -0.00276394 -0.00211207
4.22843e-05 -0.00262112 -0.000592133
2.11421e-05 -0.00203771 0.001828
-0.000131701 -0.00293474 0.000729241
-0.000251306 -0.00394175 -0.00272074
-0.000320443 -0.00419422 -0.00448761
-0.000352394 -0.00429416 -0.0049791
-0.00036783 -0.00433537 -0.00503518
-0.000378887 -0.00435116 -0.00501635
-0.000390166 -0.00435751 -0.00501867
-0.000402137 -0.00436117 -0.00505714
-0.000413078 -0.00436418 -0.00513101
-0.000420022 -0.0043663 -0.00523856
-0.000418913 -0.00436588 -0.00537762
-0.00040472 -0.00436013 -0.00554456
-0.00037197 -0.00434504 -0.00573284
-0.000315676 -0.00431558 -0.00593152
-0.000232939 -0.00426614 -0.00612357
-0.000125694 -0.00419161 -0.00627318
-5.79668e-06 -0.00408935 -0.00626177
9.60585e-05 -0.00395776 -0.00569836
0.000120403 -0.00374898 -0.00369065
6.02015e-05 -0.00287423 0.000245055
-0.000190307 -0.00390554 -0.00155096
-0.000355647 -0.00531682 -0.00694178
-0.000446079 -0.00566996 -0.00931212
-0.000483757 -0.00580626 -0.00995264
-0.000497439 -0.00586277 -0.0100358
-0.000503728 -0.00588534 -0.0100181
-0.000509146 -0.00589496 -0.0100182
-0.000514754 -0.0059005 -0.0100555
-0.000518865 -0.00590473 -0.0101302
-0.000518143 -0.00590747 -0.0102407
-0.000507871 -0.00590674 -0.0103852
-0.000481986 -0.00589898 -0.0105598
-0.000433721 -0.00587912 -0.0107575
-0.000356683 -0.00584058 -0.0109659
-0.000246866 -0.00577596 -0.0111658
-0.000106298 -0.00567838 -0.0113152
5.09923e-05 -0.00554381 -0.0112733
0.000186248 -0.00536794 -0.0105549
0.000219378 -0.00507376 -0.00793482
0.000109689 -0.00383575 -0.00204017
-0.000262257 -0.00494972 -0.00471326
-0.000483203 -0.00683636 -0.0125849
-0.000599201 -0.00731158 -0.0157135
-0.000643319 -0.00749071 -0.0165453
-0.000654428 -0.00756495 -0.0166674
-0.000654403 -0.00759536 -0.0166548
-0.000652118 -0.00760898 -0.0166542
-0.000649457 -0.00761701 -0.0166909
-0.000644841 -0.00762302 -0.0167656
-0.000634559 -0.00762696 -0.0168773
-0.000613126 -0.00762654 -0.0170246
-0.000573312 -0.00761752 -0.0172036
-0.000506714 -0.00759358 -0.0174063
-0.000405186 -0.00754637 -0.0176193
-0.000263175 -0.00746616 -0.0178205
-8.23833e-05 -0.00734369 -0.0179614
0.000120431 -0.00717261 -0.0178744
0.000296764 -0.00694401 -0.0169597
0.00034098 -0.00654298 -0.0135792
0.00017049 -0.00487278 -0.00519775
-0.000347419 -0.0059734 -0.00891598
-0.00063375 -0.00838979 -0.0198856
-0.000779185 -0.00900611 -0.0239502
-0.000830241 -0.00923286 -0.0250229
-0.000837654 -0.00932594 -0.0251984
-0.000829716 -0.00936465 -0.0251961
-0.000817946 -0.00938266 -0.0251968
-0.000805227 -0.00939367 -0.0252332
-0.000790186 -0.00940212 -0.0253074