# vtk DataFile Version 2.0 
Visualization 
ASCII 
DATASET STRUCTURED_GRID 
DIMENSIONS 21 21 11
POINTS 4851 float
-0.1 -0.1 -0.1
0 -0.1 -0.1
0.1 -0.1 -0.1
0.2 -0.1 -0.1
0.3 -0.1 -0.1
0.4 -0.1 -0.1
0.5 -0.1 -0.1
0.6 -0.1 -0.1
0.7 -0.1 -0.1
0.8 -0.1 -0.1
0.9 -0.1 -0.1
1 -0.1 -0.1
1.1 -0.1 -0.1
1.2 -0.1 -0.1
1.3 -0.1 -0.1
1.4 -0.1 -0.1
1.5 -0.1 -0.1
1.6 -0.1 -0.1
1.7 -0.1 -0.1
1.8 -0.1 -0.1
1.9 -0.1 -0.1
-0.1 0 -0.1
0 0 -0.1
0.1 0 -0.1
0.2 0 -0.1
0.3 0 -0.1
0.4 0 -0.1
0.5 0 -0.1
0.6 0 -0.1
0.7 0 -0.1
0.8 0 -0.1
0.9 0 -0.1
1 0 -0.1
1.1 0 -0.1
1.2 0 -0.1
1.3 0 -0.1
1.4 0 -0.1
1.5 0 -0.1
1.6 0 -0.1
1.7 0 -0.1
1.8 0 -0.1
1.9 0 -0.1
-0.1 0.1 -0.1
0 0.1 -0.1
0.1 0.1 -0.1
0.2 0.1 -0.1
0.3 0.1 -0.1
0.4 0.1 -0.1
0.5 0.1 -0.1
0.6 0.1 -0.1
0.7 0.1 -0.1
0.8 0.1 -0.1
0.9 0.1 -0.1
1 0.1 -0.1
1.1 0.1 -0.1
1.2 0.1 -0.1
1.3 0.1 -0.1
1.4 0.1 -0.1
1.5 0.1 -0.1
1.6 0.1 -0.1
1.7 0.1 -0.1
1.8 0.1 -0.1
1.9 0.1 -0.1
-0.1 0.2 -0.1
0 0.2 -0.1
0.1 0.2 -0.1
0.2 0.2 -0.1
0.3 0.2 -0.1
0.4 0.2 -0.1
0.5 0.2 -0.1
0.6 0.2 -0.1
0.7 0.2 -0.1
0.8 0.2 -0.1
0.9 0.2 -0.1
1 0.2 -0.1
1.1 0.2 -0.1
1.2 0.2 -0.1
1.3 0.2 -0.1
1.4 0.2 -0.1
1.5 0.2 -0.1
1.6 0.2 -0.1
1.7 0.2 -0.1
1.8 0.2 -0.1
1.9 0.2 -0.1
-0.1 0.3 -0.1
0 0.3 -0.1
0.1 0.3 -0.1
0.2 0.3 -0.1
0.3 0.3 -0.1
0.4 0.3 -0.1
0.5 0.3 -0.1
0.6 0.3 -0.1
0.7 0.3 -0.1
0.8 0.3 -0.1
0.9 0.3 -0.1
1 0.3 -0.1
1.1 0.3 -0.1
1.2 0.3 -0.1
1.3 0.3 -0.1
1.4 0.3 -0.1
1.5 0.3 -0.1
1.6 0.3 -0.1
1.7 0.3 -0.1
1.8 0.3 -0.1
1.9 0.3 -0.1
-0.1 0.4 -0.1
0 0.4 -0.1
0.1 0.4 -0.1
0.2 0.4 -0.1
0.3 0.4 -0.1
0.4 0.4 -0.1
0.5 0.4 -0.1
0.6 0.4 -0.1
0.7 0.4 -0.1
0.8 0.4 -0.1
0.9 0.4 -0.1
1 0.4 -0.1
1.1 0.4 -0.1
1.2 0.4 -0.1
1.3 0.4 -0.1
1.4 0.4 -0.1
1.5 0.4 -0.1
1.6 0.4 -0.1
1.7 0.4 -0.1
1.8 0.4 -0.1
1.9 0.4 -0.1
-0.1 0.5 -0.1
0 0.5 -0.1
0.1 0.5 -0.1
0.2 0.5 -0.1
0.3 0.5 -0.1
0.4 0.5 -0.1
0.5 0.5 -0.1
0.6 0.5 -0.1
0.7 0.5 -0.1
0.8 0.5 -0.1
0.9 0.5 -0.1
1 0.5 -0.1
1.1 0.5 -0.1
1.2 0.5 -0.1
1.3 0.5 -0.1
1.4 0.5 -0.1
1.5 0.5 -0.1
1.6 0.5 -0.1
1.7 0.5 -0.1
1.8 0.5 -0.1
1.9 0.5 -0.1
-0.1 0.6 -0.1
0 0.6 -0.1
0.1 0.6 -0.1
0.2 0.6 -0.1
0.3 0.6 -0.1
0.4 0.6 -0.1
0.5 0.6 -0.1
0.6 0.6 -0.1
0.7 0.6 -0.1
0.8 0.6 -0.1
0.9 0.6 -0.1
1 0.6 -0.1
1.1 0.6 -0.1
1.2 0.6 -0.1
1.3 0.6 -0.1
1.4 0.6 -0.1
1.5 0.6 -0.1
1.6 0.6 -0.1
1.7 0.6 -0.1
1.8 0.6 -0.1
1.9 0.6 -0.1
-0.1 0.7 -0.1
0 0.7 -0.1
0.1 0.7 -0.1
0.2 0.7 -0.1
0.3 0.7 -0.1
0.4 0.7 -0.1
0.5 0.7 -0.1
0.6 0.7 -0.1
0.7 0.7 -0.1
0.8 0.7 -0.1
0.9 0.7 -0.1
1 0.7 -0.1
1.1 0.7 -0.1
1.2 0.7 -0.1
1.3 0.7 -0.1
1.4 0.7 -0.1
1.5 0.7 -0.1
1.6 0.7 -0.1
1.7 0.7 -0.1
1.8 0.7 -0.1
1.9 0.7 -0.1
-0.1 0.8 -0.1
0 0.8 -0.1
0.1 0.8 -0.1
0.2 0.8 -0.1
0.3 0.8 -0.1
0.4 0.8 -0.1
0.5 0.8 -0.1
0.6 0.8 -0.1
0.7 0.8 -0.1
0.8 0.8 -0.1
0.9 0.8 -0.1
1 0.8 -0.1
1.1 0.8 -0.1
1.2 0.8 -0.1
1.3 0.8 -0.1
1.4 0.8 -0.1
1.5 0.8 -0.1
1.6 0.8 -0.1
1.7 0.8 -0.1
1.8 0.8 -0.1
1.9 0.8 -0.1
-0.1 0.9 -0.1
0 0.9 -0.1
0.1 0.9 -0.1
0.2 0.9 -0.1
0.3 0.9 -0.1
0.4 0.9 -0.1
0.5 0.9 -0.1
0.6 0.9 -0.1
0.7 0.9 -0.1
0.8 0.9 -0.1
0.9 0.9 -0.1
1 0.9 -0.1
1.1 0.9 -0.1
1.2 0.9 -0.1
1.3 0.9 -0.1
1.4 0.9 -0.1
1.5 0.9 -0.1
1.6 0.9 -0.1
1.7 0.9 -0.1
1.8 0.9 -0.1
1.9 0.9 -0.1
-0.1 1 -0.1
0 1 -0.1
0.1 1 -0.1
0.2 1 -0.1
0.3 1 -0.1
0.4 1 -0.1
0.5 1 -0.1
0.6 1 -0.1
0.7 1 -0.1
0.8 1 -0.1
0.9 1 -0.1
1 1 -0.1
1.1 1 -0.1
1.2 1 -0.1
1.3 1 -0.1
1.4 1 -0.1
1.5 1 -0.1
1.6 1 -0.1
1.7 1 -0.1
1.8 1 -0.1
1.9 1 -0.1
-0.1 1.1 -0.1
0 1.1 -0.1
0.1 1.1 -0.1
0.2 1.1 -0.1
0.3 1.1 -0.1
0.4 1.1 -0.1
0.5 1.1 -0.1
0.6 1.1 -0.1
0.7 1.1 -0.1
0.8 1.1 -0.1
0.9 1.1 -0.1
1 1.1 -0.1
1.1 1.1 -0.1
1.2 1.1 -0.1
1.3 1.1 -0.1
1.4 1.1 -0.1
1.5 1.1 -0.1
1.6 1.1 -0.1
1.7 1.1 -0.1
1.8 1.1 -0.1
1.9 1.1 -0.1
-0.1 1.2 -0.1
0 1.2 -0.1
0.1 1.2 -0.1
0.2 1.2 -0.1
0.3 1.2 -0.1
0.4 1.2 -0.1
0.5 1.2 -0.1
0.6 1.2 -0.1
0.7 1.2 -0.1
0.8 1.2 -0.1
0.9 1.2 -0.1
1 1.2 -0.1
1.1 1.2 -0.1
1.2 1.2 -0.1
1.3 1.2 -0.1
1.4 1.2 -0.1
1.5 1.2 -0.1
1.6 1.2 -0.1
1.7 1.2 -0.1
1.8 1.2 -0.1
1.9 1.2 -0.1
-0.1 1.3 -0.1
0 1.3 -0.1
0.1 1.3 -0.1
0.2 1.3 -0.1
0.3 1.3 -0.1
0.4 1.3 -0.1
0.5 1.3 -0.1
0.6 1.3 -0.1
0.7 1.3 -0.1
0.8 1.3 -0.1
0.9 1.3 -0.1
1 1.3 -0.1
1.1 1.3 -0.1
1.2 1.3 -0.1
1.3 1.3 -0.1
1.4 1.3 -0.1
1.5 1.3 -0.1
1.6 1.3 -0.1
1.7 1.3 -0.1
1.8 1.3 -0.1
1.9 1.3 -0.1
-0.1 1.4 -0.1
0 1.4 -0.1
0.1 1.4 -0.1
0.2 1.4 -0.1
0.3 1.4 -0.1
0.4 1.4 -0.1
0.5 1.4 -0.1
0.6 1.4 -0.1
0.7 1.4 -0.1
0.8 1.4 -0.1
0.9 1.4 -0.1
1 1.4 -0.1
1.1 1.4 -0.1
1.2 1.4 -0.1
1.3 1.4 -0.1
1.4 1.4 -0.1
1.5 1.4 -0.1
1.6 1.4 -0.1
1.7 1.4 -0.1
1.8 1.4 -0.1
1.9 1.4 -0.1
-0.1 1.5 -0.1
0 1.5 -0.1
0.1 1.5 -0.1
0.2 1.5 -0.1
0.3 1.5 -0.1
0.4 1.5 -0.1
0.5 1.5 -0.1
0.6 1.5 -0.1
0.7 1.5 -0.1
0.8 1.5 -0.1
0.9 1.5 -0.1
1 1.5 -0.1
1.1 1.5 -0.1
1.2 1.5 -0.1
1.3 1.5 -0.1
1.4 1.5 -0.1
1.5 1.5 -0.1
1.6 1.5 -0.1
1.7 1.5 -0.1
1.8 1.5 -0.1
1.9 1.5 -0.1
-0.1 1.6 -0.1
0 1.6 -0.1
0.1 1.6 -0.1
0.2 1.6 -0.1
0.3 1.6 -0.1
0.4 1.6 -0.1
0.5 1.6 -0.1
0.6 1.6 -0.1
0.7 1.6 -0.1
0.8 1.6 -0.1
0.9 1.6 -0.1
1 1.6 -0.1
1.1 1.6 -0.1
1.2 1.6 -0.1
1.3 1.6 -0.1
1.4 1.6 -0.1
1.5 1.6 -0.1
1.6 1.6 -0.1
1.7 1.6 -0.1
1.8 1.6 -0.1
1.9 1.6 -0.1
-0.1 1.7 -0.1
0 1.7 -0.1
0.1 1.7 -0.1
0.2 1.7 -0.1
0.3 1.7 -0.1
0.4 1.7 -0.1
0.5 1.7 -0.1
0.6 1.7 -0.1
0.7 1.7 -0.1
0.8 1.7 -0.1
0.9 1.7 -0.1
1 1.7 -0.1
1.1 1.7 -0.1
1.2 1.7 -0.1
1.3 1.7 -0.1
1.4 1.7 -0.1
1.5 1.7 -0.1
1.6 1.7 -0.1
1.7 1.7 -0.1
1.8 1.7 -0.1
1.9 1.7 -0.1
-0.1 1.8 -0.1
0 1.8 -0.1
0.1 1.8 -0.1
0.2 1.8 -0.1
0.3 1.8 -0.1
0.4 1.8 -0.1
0.5 1.8 -0.1
0.6 1.8 -0.1
0.7 1.8 -0.1
0.8 1.8 -0.1
0.9 1.8 -0.1
1 1.8 -0.1
1.1 1.8 -0.1
1.2 1.8 -0.1
1.3 1.8 -0.1
1.4 1.8 -0.1
1.5 1.8 -0.1
1.6 1.8 -0.1
1.7 1.8 -0.1
1.8 1.8 -0.1
1.9 1.8 -0.1
-0.1 1.9 -0.1
0 1.9 -0.1
0.1 1.9 -0.1
0.2 1.9 -0.1
0.3 1.9 -0.1
0.4 1.9 -0.1
0.5 1.9 -0.1
0.6 1.9 -0.1
0.7 1.9 -0.1
0.8 1.9 -0.1
0.9 1.9 -0.1
1 1.9 -0.1
1.1 1.9 -0.1
1.2 1.9 -0.1
1.3 1.9 -0.1
1.4 1.9 -0.1
1.5 1.9 -0.1
1.6 1.9 -0.1
1.7 1.9 -0.1
1.8 1.9 -0.1
1.9 1.9 -0.1
-0.1 -0.1 0
0 -0.1 0
0.1 -0.1 0
0.2 -0.1 0
0.3 -0.1 0
0.4 -0.1 0
0.5 -0.1 0
0.6 -0.1 0
0.7 -0.1 0
0.8 -0.1 0
0.9 -0.1 0
1 -0.1 0
1.1 -0.1 0
1.2 -0.1 0
1.3 -0.1 0
1.4 -0.1 0
1.5 -0.1 0
1.6 -0.1 0
1.7 -0.1 0
1.8 -0.1 0
1.9 -0.1 0
-0.1 0 0
0 0 0
0.1 0 0
0.2 0 0
0.3 0 0
0.4 0 0
0.5 0 0
0.6 0 0
0.7 0 0
0.8 0 0
0.9 0 0
1 0 0
1.1 0 0
1.2 0 0
1.3 0 0
1.4 0 0
1.5 0 0
1.6 0 0
1.7 0 0
1.8 0 0
1.9 0 0
-0.1 0.1 0
0 0.1 0
0.1 0.1 0
0.2 0.1 0
0.3 0.1 0
0.4 0.1 0
0.5 0.1 0
0.6 0.1 0
0.7 0.1 0
0.8 0.1 0
0.9 0.1 0
1 0.1 0
1.1 0.1 0
1.2 0.1 0
1.3 0.1 0
1.4 0.1 0
1.5 0.1 0
1.6 0.1 0
1.7 0.1 0
1.8 0.1 0
1.9 0.1 0
-0.1 0.2 0
0 0.2 0
0.1 0.2 0
0.2 0.2 0
0.3 0.2 0
0.4 0.2 0
0.5 0.2 0
0.6 0.2 0
0.7 0.2 0
0.8 0.2 0
0.9 0.2 0
1 0.2 0
1.1 0.2 0
1.2 0.2 0
1.3 0.2 0
1.4 0.2 0
1.5 0.2 0
1.6 0.2 0
1.7 0.2 0
1.8 0.2 0
1.9 0.2 0
-0.1 0.3 0
0 0.3 0
0.1 0.3 0
0.2 0.3 0
0.3 0.3 0
0.4 0.3 0
0.5 0.3 0
0.6 0.3 0
0.7 0.3 0
0.8 0.3 0
0.9 0.3 0
1 0.3 0
1.1 0.3 0
1.2 0.3 0
1.3 0.3 0
1.4 0.3 0
1.5 0.3 0
1.6 0.3 0
1.7 0.3 0
1.8 0.3 0
1.9 0.3 0
-0.1 0.4 0
0 0.4 0
0.1 0.4 0
0.2 0.4 0
0.3 0.4 0
0.4 0.4 0
0.5 0.4 0
0.6 0.4 0
0.7 0.4 0
0.8 0.4 0
0.9 0.4 0
1 0.4 0
1.1 0.4 0
1.2 0.4 0
1.3 0.4 0
1.4 0.4 0
1.5 0.4 0
1.6 0.4 0
1.7 0.4 0
1.8 0.4 0
1.9 0.4 0
-0.1 0.5 0
0 0.5 0
0.1 0.5 0
0.2 0.5 0
0.3 0.5 0
0.4 0.5 0
0.5 0.5 0
0.6 0.5 0
0.7 0.5 0
0.8 0.5 0
0.9 0.5 0
1 0.5 0
1.1 0.5 0
1.2 0.5 0
1.3 0.5 0
1.4 0.5 0
1.5 0.5 0
1.6 0.5 0
1.7 0.5 0
1.8 0.5 0
1.9 0.5 0
-0.1 0.6 0
0 0.6 0
0.1 0.6 0
0.2 0.6 0
0.3 0.6 0
0.4 0.6 0
0.5 0.6 0
0.6 0.6 0
0.7 0.6 0
0.8 0.6 0
0.9 0.6 0
1 0.6 0
1.1 0.6 0
1.2 0.6 0
1.3 0.6 0
1.4 0.6 0
1.5 0.6 0
1.6 0.6 0
1.7 0.6 0
1.8 0.6 0
1.9 0.6 0
-0.1 0.7 0
0 0.7 0
0.1 0.7 0
0.2 0.7 0
0.3 0.7 0
0.4 0.7 0
0.5 0.7 0
0.6 0.7 0
0.7 0.7 0
0.8 0.7 0
0.9 0.7 0
1 0.7 0
1.1 0.7 0
1.2 0.7 0
1.3 0.7 0
1.4 0.7 0
1.5 0.7 0
1.6 0.7 0
1.7 0.7 0
1.8 0.7 0
1.9 0.7 0
-0.1 0.8 0
0 0.8 0
0.1 0.8 0
0.2 0.8 0
0.3 0.8 0
0.4 0.8 0
0.5 0.8 0
0.6 0.8 0
0.7 0.8 0
0.8 0.8 0
0.9 0.8 0
1 0.8 0
1.1 0.8 0
1.2 0.8 0
1.3 0.8 0
1.4 0.8 0
1.5 0.8 0
1.6 0.8 0
1.7 0.8 0
1.8 0.8 0
1.9 0.8 0
-0.1 0.9 0
0 0.9 0
0.1 0.9 0
0.2 0.9 0
0.3 0.9 0
0.4 0.9 0
0.5 0.9 0
0.6 0.9 0
0.7 0.9 0
0.8 0.9 0
0.9 0.9 0
1 0.9 0
1.1 0.9 0
1.2 0.9 0
1.3 0.9 0
1.4 0.9 0
1.5 0.9 0
1.6 0.9 0
1.7 0.9 0
1.8 0.9 0
1.9 0.9 0
-0.1 1 0
0 1 0
0.1 1 0
0.2 1 0
0.3 1 0
0.4 1 0
0.5 1 0
0.6 1 0
0.7 1 0
0.8 1 0
0.9 1 0
1 1 0
1.1 1 0
1.2 1 0
1.3 1 0
1.4 1 0
1.5 1 0
1.6 1 0
1.7 1 0
1.8 1 0
1.9 1 0
-0.1 1.1 0
0 1.1 0
0.1 1.1 0
0.2 1.1 0
0.3 1.1 0
0.4 1.1 0
0.5 1.1 0
0.6 1.1 0
0.7 1.1 0
0.8 1.1 0
0.9 1.1 0
1 1.1 0
1.1 1.1 0
1.2 1.1 0
1.3 1.1 0
1.4 1.1 0
1.5 1.1 0
1.6 1.1 0
1.7 1.1 0
1.8 1.1 0
1.9 1.1 0
-0.1 1.2 0
0 1.2 0
0.1 1.2 0
0.2 1.2 0
0.3 1.2 0
0.4 1.2 0
0.5 1.2 0
0.6 1.2 0
0.7 1.2 0
0.8 1.2 0
0.9 1.2 0
1 1.2 0
1.1 1.2 0
1.2 1.2 0
1.3 1.2 0
1.4 1.2 0
1.5 1.2 0
1.6 1.2 0
1.7 1.2 0
1.8 1.2 0
1.9 1.2 0
-0.1 1.3 0
0 1.3 0
0.1 1.3 0
0.2 1.3 0
0.3 1.3 0
0.4 1.3 0
0.5 1.3 0
0.6 1.3 0
0.7 1.3 0
0.8 1.3 0
0.9 1.3 0
1 1.3 0
1.1 1.3 0
1.2 1.3 0
1.3 1.3 0
1.4 1.3 0
1.5 1.3 0
1.6 1.3 0
1.7 1.3 0
1.8 1.3 0
1.9 1.3 0
-0.1 1.4 0
0 1.4 0
0.1 1.4 0
0.2 1.4 0
0.3 1.4 0
0.4 1.4 0
0.5 1.4 0
0.6 1.4 0
0.7 1.4 0
0.8 1.4 0
0.9 1.4 0
1 1.4 0
1.1 1.4 0
1.2 1.4 0
1.3 1.4 0
1.4 1.4 0
1.5 1.4 0
1.6 1.4 0
1.7 1.4 0
1.8 1.4 0
1.9 1.4 0
-0.1 1.5 0
0 1.5 0
0.1 1.5 0
0.2 1.5 0
0.3 1.5 0
0.4 1.5 0
0.5 1.5 0
0.6 1.5 0
0.7 1.5 0
0.8 1.5 0
0.9 1.5 0
1 1.5 0
1.1 1.5 0
1.2 1.5 0
1.3 1.5 0
1.4 1.5 0
1.5 1.5 0
1.6 1.5 0
1.7 1.5 0
1.8 1.5 0
1.9 1.5 0
-0.1 1.6 0
0 1.6 0
0.1 1.6 0
0.2 1.6 0
0.3 1.6 0
0.4 1.6 0
0.5 1.6 0
0.6 1.6 0
0.7 1.6 0
0.8 1.6 0
0.9 1.6 0
1 1.6 0
1.1 1.6 0
1.2 1.6 0
1.3 1.6 0
1.4 1.6 0
1.5 1.6 0
1.6 1.6 0
1.7 1.6 0
1.8 1.6 0
1.9 1.6 0
-0.1 1.7 0
0 1.7 0
0.1 1.7 0
0.2 1.7 0
0.3 1.7 0
0.4 1.7 0
0.5 1.7 0
0.6 1.7 0
0.7 1.7 0
0.8 1.7 0
0.9 1.7 0
1 1.7 0
1.1 1.7 0
1.2 1.7 0
1.3 1.7 0
1.4 1.7 0
1.5 1.7 0
1.6 1.7 0
1.7 1.7 0
1.8 1.7 0
1.9 1.7 0
-0.1 1.8 0
0 1.8 0
0.1 1.8 0
0.2 1.8 0
0.3 1.8 0
0.4 1.8 0
0.5 1.8 0
0.6 1.8 0
0.7 1.8 0
0.8 1.8 0
0.9 1.8 0
1 1.8 0
1.1 1.8 0
1.2 1.8 0
1.3 1.8 0
1.4 1.8 0
1.5 1.8 0
1.6 1.8 0
1.7 1.8 0
1.8 1.8 0
1.9 1.8 0
-0.1 1.9 0
0 1.9 0
0.1 1.9 0
0.2 1.9 0
0.3 1.9 0
0.4 1.9 0
0.5 1.9 0
0.6 1.9 0
0.7 1.9 0
0.8 1.9 0
0.9 1.9 0
1 1.9 0
1.1 1.9 0
1.2 1.9 0
1.3 1.9 0
1.4 1.9 0
1.5 1.9 0
1.6 1.9 0
1.7 1.9 0
1.8 1.9 0
[...]
CELL_DATA 4000
VECTORS velocity double 
-2.80149e-05 0.000263422 -0.000235408
-3.03011e-05 0.000314005 -0.000268644
-2.69849e-05 0.000319822 -0.000277583
-1.70694e-05 0.000320767 -0.00028308
-8.42445e-07 0.000321067 -0.000286465
2.01223e-05 0.000321541 -0.000288532
4.3836e-05 0.000322376 -0.000289747
6.82432e-05 0.000323581 -0.000290293
9.13368e-05 0.000325146 -0.00029019
0.000111109 0.000326969 -0.000289347
0.000125595 0.000328939 -0.000287686
0.000133007 0.000330889 -0.000285141
0.000131779 0.000332572 -0.000281733
0.000120995 0.000333729 -0.000277552
0.00010051 0.000333948 -0.000272865
7.12221e-05 0.000332904 -0.000268013
3.53503e-05 0.000330296 -0.000263287
-3.56108e-06 0.000325747 -0.000259022
-4.07131e-05 0.000317568 -0.000254213
-2.03565e-05 0.00027431 -0.00022214
-1.62542e-05 0.000770598 -0.000302139
-1.95649e-05 0.000916066 -0.000356443
-1.93415e-05 0.000932667 -0.00037043
-1.13515e-05 0.00093537 -0.00037824
5.06903e-06 0.000935812 -0.000382813
2.84676e-05 0.000936353 -0.000385432
5.66299e-05 0.000937688 -0.00038681
8.71461e-05 0.000939973 -0.000387216
0.000117467 0.000943185 -0.000386727
0.000144977 0.000947169 -0.000385232
0.000166982 0.000951662 -0.000382651
0.000180867 0.000956285 -0.000378867
0.000184229 0.000960404 -0.000373942
0.000175229 0.000963281 -0.000368089
0.000153059 0.000964008 -0.000361525
0.000118155 0.000961618 -0.000354716
7.2547e-05 0.000955253 -0.000348175
2.02158e-05 0.000943882 -0.000342376
-3.13135e-05 0.000920979 -0.000335863
-1.56567e-05 0.000781836 -0.00029074
-3.29769e-06 0.00144944 -0.000375242
-2.72381e-06 0.00174421 -0.000444902
-3.04743e-06 0.00177861 -0.000462891
3.39267e-06 0.00178449 -0.000472845
1.85894e-05 0.00178529 -0.00047857
4.15228e-05 0.00178567 -0.000481709
7.00335e-05 0.00178705 -0.000483223
0.000101633 0.00178987 -0.00048349
0.000133637 0.00179416 -0.000482619
0.000163214 0.00179975 -0.000480498
0.000187391 0.00180627 -0.000477018
0.000203098 0.00181308 -0.000472079
0.000207439 0.00181922 -0.000465717
0.000198047 0.00182336 -0.000458177
0.000173526 0.00182403 -0.000449757
0.000133888 0.00181967 -0.000440963
8.08912e-05 0.00180876 -0.000432498
1.85284e-05 0.00178913 -0.000425025
-4.31465e-05 0.00174552 -0.000417103
-2.15732e-05 0.00145811 -0.000362093
1.17557e-05 0.0022916 -0.000468501
1.85429e-05 0.00279663 -0.000555268
1.85417e-05 0.00285792 -0.000577318
2.34025e-05 0.00286898 -0.000589605
3.69666e-05 0.0028707 -0.000596652
5.8832e-05 0.00287087 -0.000600452
8.70102e-05 0.00287189 -0.000602182
0.000118955 0.00287458 -0.000602377
0.000151864 0.00287912 -0.000601185
0.000182695 0.00288536 -0.000598472
0.000208173 0.00289289 -0.000594086
0.000224801 0.00290083 -0.000587942
0.000229053 0.00290787 -0.000580052
0.000218026 0.00291226 -0.000570565
0.00018979 0.00291191 -0.000559973
0.000143871 0.00290452 -0.000548901
8.16411e-05 0.00288791 -0.000538257
7.66957e-06 0.00285854 -0.000528907
-6.37866e-05 0.00278691 -0.000519439
-3.18933e-05 0.00229339 -0.000451998
2.98636e-05 0.00330506 -0.000576298
4.53432e-05 0.00408792 -0.000681645
4.65623e-05 0.00418734 -0.000707623
4.9713e-05 0.00420619 -0.000722294
6.10264e-05 0.00420968 -0.000730751
8.10095e-05 0.00420973 -0.000735309
0.000107961 0.00421003 -0.000737361
0.000139355 0.00421192 -0.000737576
0.00017231 0.00421578 -0.00073614
0.000203627 0.00422158 -0.000732912
0.00022967 0.00422886 -0.000727713
0.000246471 0.00423659 -0.000720355
0.000249955 0.0042432 -0.000710887
0.000236562 0.0042465 -0.000699418
0.000203613 0.00424382 -0.000686569
0.000150186 0.00423223 -0.000672979
7.75531e-05 0.00420868 -0.000659849
-9.04033e-06 0.00416743 -0.000648637
-9.00187e-05 0.00405829 -0.000637832
-4.50093e-05 0.00329475 -0.000556254
5.16783e-05 0.00449941 -0.000693336
7.87344e-05 0.00563405 -0.00081772
8.23167e-05 0.00578485 -0.000847178
8.3715e-05 0.00581458 -0.000864122
9.20773e-05 0.00582089 -0.000874037
0.000109166 0.00582106 -0.000879419
0.000133725 0.00582041 -0.000881886
0.000163359 0.0058209 -0.000882234
0.000195167 0.00582325 -0.000880705
0.000225811 0.00582752 -0.000877103
0.000251328 0.00583328 -0.000871233
0.000267319 0.00583944 -0.000862809
0.000269107 0.00584423 -0.000851873
0.000252389 0.00584506 -0.000838443
0.000213818 0.00583864 -0.000823283
0.000151777 0.00582142 -0.00080727
6.74312e-05 0.00578947 -0.000791706
-3.27776e-05 0.00573387 -0.000778653
-0.000122748 0.00557594 -0.000766731
-6.1374e-05 0.00447208 -0.000670084
7.75861e-05 0.00587947 -0.000814505
0.000119472 0.0074453 -0.000957285
0.000126772 0.00766243 -0.000989464
0.000126458 0.00770648 -0.00100838
0.000131166 0.00771672 -0.0010197
0.000144276 0.00771737 -0.00102593
0.000165154 0.00771568 -0.00102891
0.000191664 0.00771437 -0.00102954
0.000220932 0.00771452 -0.0010281
0.000249515 0.00771639 -0.00102436
0.000273205 0.0077196 -0.00101809
0.000287192 0.00772307 -0.00100887
0.000286175 0.0077248 -0.000996749
0.000265013 0.00772192 -0.000981706
0.000219634 0.00771059 -0.000964347
0.000147782 0.0076865 -0.000945893
5.04747e-05 0.00764468 -0.000928063
-6.43005e-05 0.00757186 -0.000913478
-0.00016276 0.00735196 -0.000900815
-8.13798e-05 0.00583141 -0.000788712
0.000107612 0.00744266 -0.000934802
0.000167688 0.00952299 -0.00109429
0.000180174 0.00982259 -0.00112808
0.000178265 0.00988443 -0.00114846
0.000178693 0.00989965 -0.00116097
0.000186781 0.00990116 -0.00116804
0.000202741 0.00989847 -0.0011716
0.000224749 0.0098952 -0.00117267
0.000250079 0.00989283 -0.00117157
0.000275225 0.00989184 -0.00116802
0.000295779 0.00989191 -0.00116173
0.000306502 0.00989205 -0.00115216
0.000301513 0.00989008 -0.00113919
0.000274848 0.00988273 -0.00112296
0.000221504 0.00986578 -0.00110395
0.000138497 0.00983404 -0.00108347
2.67971e-05 0.00978123 -0.00106366
-0.000103553 0.0096882 -0.00104784
-0.000210167 0.00939131 -0.00103497
-0.000105084 0.00737281 -0.000907557
0.000141298 0.00917887 -0.00104993
0.000222628 0.0118588 -0.00122359
0.000241663 0.0122575 -0.0012575
0.000238305 0.0123402 -0.00127861
0.000233937 0.0123611 -0.00129197
0.00023614 0.0123638 -0.00129975
0.000246134 0.0123603 -0.00130393
0.000262545 0.0123552 -0.00130559
0.000282794 0.0123504 -0.00130508
0.000303337 0.0123465 -0.00130209
0.00031971 0.0123435 -0.00129619
0.000326191 0.0123404 -0.00128695
0.000316269 0.012335 -0.00127388
0.000283231 0.0123236 -0.00125701
0.000220953 0.0123014 -0.00123695
0.000125584 0.0122622 -0.00121506
-1.91507e-06 0.0121982 -0.00119379
-0.000149091 0.0120822 -0.00117715
-0.000263621 0.0116918 -0.00116475
-0.00013181 0.00908997 -0.0010229
0.000177532 0.011073 -0.00115761
0.000282281 0.014437 -0.00134244
0.000308782 0.0149512 -0.00137472
0.000304025 0.0150569 -0.00139558
0.000294495 0.0150835 -0.00140928
0.00029029 0.0150872 -0.00141754
0.000293715 0.0150831 -0.00142229
0.000303847 0.0150765 -0.00142465
0.000318349 0.0150698 -0.00142495
0.000333686 0.0150638 -0.00142297
0.000345398 0.0150587 -0.0014179
0.000347364 0.0150535 -0.00140954
0.000332363 0.015046 -0.00139732
0.000292751 0.0150323 -0.00138086
0.000221145 0.0150069 -0.00136075
0.000112685 0.0149624 -0.00133834
-3.1827e-05 0.0148884 -0.00131642
-0.000197414 0.0147474 -0.0012997
-0.000320437 0.0142457 -0.00128829
-0.000160219 0.0109725 -0.00113301
0.000214394 0.0131112 -0.00125963
0.000343027 0.0172416 -0.00145307
0.00037689 0.0178858 -0.00148188
0.000370475 0.0180149 -0.00150128
0.000355587 0.018046 -0.00151463
0.000344861 0.0180502 -0.00152299
0.0003417 0.0180455 -0.00152812
0.000345584 0.018038 -0.00153122
0.000354515 0.0180301 -0.00153241
0.000364982 0.0180232 -0.00153183
0.000372472 0.0180175 -0.00152844
0.000370669 0.0180124 -0.00152175
0.00035168 0.0180058 -0.0015112
0.000306663 0.0179936 -0.00149629
0.000226705 0.0179694 -0.00147739
0.000105487 0.0179243 -0.00145566
-5.67939e-05 0.0178443 -0.00143412
-0.000242594 0.0176779 -0.00141835
-0.000375933 0.0170466 -0.00140859
-0.000187967 0.013012 -0.00124001
0.000248944 0.0152923 -0.00136509
0.000398996 0.0202686 -0.00156646
0.000438363 0.0210543 -0.00159009
0.000429371 0.0212043 -0.0016067
0.000409056 0.0212368 -0.00161879
0.000392288 0.02124 -0.00162674
0.000383312 0.0212342 -0.00163197
0.000381884 0.0212262 -0.00163582
0.000386293 0.0212183 -0.001638
0.000393352 0.0212119 -0.00163875
0.000398492 0.0212077 -0.0016374
0.000395271 0.0212057 -0.00163314
0.00037526 0.0212042 -0.00162521
0.000328214 0.0211993 -0.00161308
0.000243296 0.0211838 -0.0015968
0.000111775 0.0211467 -0.00157728
-6.78158e-05 0.0210688 -0.00155752
-0.00027573 0.02088 -0.00154359
-0.000422968 0.0201015 -0.00153599
-0.000211484 0.0152124 -0.00135302
0.000276769 0.0176473 -0.00149543
0.000441119 0.0235481 -0.00170832
0.000481311 0.0244815 -0.00172558
0.000467802 0.0246456 -0.00173803
0.000442078 0.024674 -0.00174787
0.000420359 0.0246733 -0.00175479
0.000407202 0.0246657 -0.00175963
0.000402512 0.024657 -0.00176382
0.000404632 0.0246497 -0.00176716
0.000410808 0.0246452 -0.00176942
0.000416927 0.0246448 -0.00177015
0.000416656 0.0246492 -0.00176868
0.000401142 0.0246579 -0.00176418
0.000358719 0.0246677 -0.001756
0.000276038 0.0246712 -0.00174378
0.000140513 0.0246554 -0.00172821
-5.29596e-05 0.0245938 -0.00171198
-0.000284177 0.0243916 -0.00170101
-0.000451542 0.0234512 -0.00169547
-0.000225771 0.0176087 -0.00149289
0.00029109 0.0202731 -0.00169357
0.00045532 0.0271828 -0.00192987
0.000487374 0.0282612 -0.00194052
0.000465975 0.0284262 -0.00194749
0.000435057 0.0284419 -0.00195393
0.000410422 0.0284331 -0.00195911
0.000395719 0.0284219 -0.00196327
0.000390794 0.0284124 -0.00196712
0.000394075 0.0284059 -0.00197096
0.000403315 0.0284039 -0.00197452
0.000415173 0.0284086 -0.00197731
0.000424021 0.0284219 -0.00197874
0.000421182 0.0284452 -0.00197806
0.000394002 0.0284772 -0.0019746
0.000326095 0.0285122 -0.00196772
0.000199267 0.0285356 -0.00195775
1.39587e-06 0.0285127 -0.00194675
-0.000251402 0.0283166 -0.00194002
-0.000447614 0.027207 -0.0019359
-0.000223807 0.0202983 -0.00170112
0.000280534 0.0233947 -0.00204332
0.000418597 0.0314166 -0.00233026
0.000427541 0.0326224 -0.00233561
0.00039336 0.0327663 -0.00233598
0.000358048 0.0327572 -0.00233792
0.000333945 0.032735 -0.00234017
0.000322016 0.0327179 -0.00234308
0.000321164 0.0327064 -0.00234646
0.000329993 0.0327 -0.00235033
0.000347106 0.0327 -0.00235456
0.00037037 0.0327095 -0.0023588
0.000395763 0.032732 -0.00236263
0.000415973 0.0327718 -0.00236553
0.000418681 0.0328313 -0.00236685
0.000384884 0.032909 -0.002366
0.000289313 0.0329923 -0.00236291
0.000107729 0.0330398 -0.00235878
-0.00015693 0.0328854 -0.00235747
-0.000392038 0.0316154 -0.00235281
-0.000196019 0.0235002 -0.00205885
0.000223651 0.0274938 -0.00271612
0.000290328 0.0367733 -0.0031107
0.000253223 0.0380634 -0.00311429
0.00020075 0.0381525 -0.00310702
0.000163881 0.0381038 -0.00310366
0.000145935 0.038063 -0.00310237
0.000143252 0.0380378 -0.00310295
0.000152775 0.0380226 -0.00310499
0.000173056 0.0380146 -0.00310814
0.000203753 0.0380148 -0.00311218
0.000244539 0.0380265 -0.00311692
0.000294132 0.0380551 -0.00312217
0.000348497 0.0381082 -0.00312769
0.000398279 0.0381939 -0.00313307
0.000424735 0.0383188 -0.003138
0.000396431 0.0384792 -0.00314217
0.000271463 0.0386351 -0.00314605
2.3735e-05 0.0385811 -0.00315127
-0.000255871 0.0371925 -0.00314258
-0.000127936 0.0276786 -0.00273357
7.41656e-05 0.0336081 -0.00409287
-8.24857e-06 0.044368 -0.00471286
-0.000122857 0.0456543 -0.00472157
-0.000196368 0.0456433 -0.00470579
-0.000226152 0.0455412 -0.00469572
-0.000226636 0.0454781 -0.0046903
-0.000209128 0.0454431 -0.00468809
-0.00017919 0.0454225 -0.00468803
-0.000138429 0.0454107 -0.00468956
-8.61921e-05 0.0454077 -0.00469239
-2.06389e-05 0.0454169 -0.00469646
6.05826e-05 0.0454448 -0.00470177
0.00015903 0.0455017 -0.00470832
0.000272522 0.0456019 -0.00471617
0.000389399 0.0457636 -0.00472539
0.000479271 0.0460018 -0.00473585
0.000482862 0.0462965 -0.00474764
0.000323227 0.0464248 -0.00475984
1.55694e-05 0.0450246 -0.00474126
7.7847e-06 0.0338363 -0.00410296
-0.000280805 0.0440216 -0.00702961
-0.00064318 0.0565745 -0.0081031
-0.000866577 0.0576952 -0.00812808
-0.000947963 0.057538 -0.00810506
-0.000945461 0.0573794 -0.00808795
-0.000902181 0.057296 -0.00807764
-0.000839811 0.0572517 -0.00807187
-0.000766944 0.0572245 -0.008069
-0.000685618 0.0572068 -0.00806813
-0.000594524 0.0571974 -0.00806889
-0.000489939 0.0571989 -0.00807121
-0.000365805 0.0572177 -0.00807523
-0.000213722 0.0572643 -0.00808124
-2.41938e-05 0.0573566 -0.00808966
0.000208948 0.057523 -0.00810085
0.000475412 0.0578029 -0.0081151
0.000720412 0.0582225 -0.00813243
0.000808161 0.0586055 -0.00814971
0.000568354 0.0574119 -0.00811322
0.000284177 0.0442176 -0.00702632
-0.00113558 0.0617174 -0.0113078
-0.00195386 0.0758947 -0.0128829
-0.00225155 0.07661 -0.0129301
-0.00225185 0.0763171 -0.0129051
-0.0021276 0.0761317 -0.0128825
-0.00196104 0.076043 -0.0128675
-0.0017845 0.0759957 -0.0128581
-0.00160885 0.0759655 -0.0128524
-0.00143622 0.075944 -0.0128491
-0.0012647 0.0759296 -0.0128477
-0.00108936 0.0759235 -0.0128482
-0.000901544 0.0759296 -0.0128509
-0.000687119 0.0759559 -0.0128561
-0.000423785 0.0760172 -0.0128646
-7.8695e-05 0.0761413 -0.0128771
0.00038778 0.0763783 -0.0128939
0.000993307 0.0768015 -0.0129135
0.00162802 0.0773675 -0.0129285
0.00181558 0.076682 -0.0128717
0.000907792 0.0618253 -0.0113038
-0.00296535 0.0308587 0.0427638
-0.00395235 0.0379473 0.0472335
-0.00384097 0.038305 0.0472699
-0.00339927 0.0381586 0.0472742
-0.00292017 0.0380658 0.0472956
-0.00248646 0.0380215 0.0473129
-0.00211178 0.0379979 0.0473242
-0.00179049 0.0379827 0.0473314
-0.00151297 0.037972 0.0473359
-0.00126945 0.0379648 0.0473382
-0.00105 0.0379618 0.0473382
-0.000843116 0.0379648 0.0473355
-0.000632948 0.037978 0.0473289
-0.000393779 0.0380086 0.0473168
-7.91428e-05 0.0380706 0.0472968
0.000399997 0.0381892 0.0472672
0.00120989 0.0384008 0.0472321
0.00257416 0.0386838 0.0472173
0.00416526 0.038341 0.0471789
0.00208263 0.0309127 0.0427441
-3.31867e-05 0.000263593 -0.000526449
-4.49061e-05 0.000315382 -0.000629792
-4.74968e-05 0.000319191 -0.000654433
-3.99196e-05 0.00031884 -0.000668466
-2.30254e-05 0.000318488 -0.000677481
1.16292e-06 0.000318763 -0.000683503
3.02936e-05 0.000319713 -0.000687571
6.19684e-05 0.000321289 -0.000690074
9.38235e-05 0.000323425 -0.000690911
0.000123378 0.000326015 -0.000689845
0.000148102 0.000328918 -0.000686552
0.000165512 0.000331989 -0.000680779
0.000173277 0.000334906 -0.000672549
0.000169599 0.000337261 -0.000662065
0.000153545 0.000338672 -0.000649922
0.000125482 0.000338687 -0.000636879
8.72607e-05 0.000336787 -0.000623922
4.2509e-05 0.000332401 -0.000611871
-3.52726e-06 0.000323184 -0.000597591
-1.76363e-06 0.000272081 -0.000509057
-2.67984e-05 0.000789586 -0.00072717
-4.27369e-05 0.000951443 -0.000895094
-5.05543e-05 0.000965848 -0.000934692
-4.62773e-05 0.000965806 -0.000955282
-2.97353e-05 0.000964609 -0.000967712
-2.70185e-06 0.000964512 -0.00097552
3.23821e-05 0.000965944 -0.000980373
7.28041e-05 0.000968927 -0.000982932
0.000115673 0.00097336 -0.000983175
0.000157793 0.000979069 -0.000980764
0.000195766 0.000985768 -0.000975331
0.000225939 0.000993015 -0.000966511
0.000244676 0.00100008 -0.000954332
0.000248912 0.00100599 -0.000939111
0.000236455 0.00100965 -0.000921562
0.000206566 0.00100983 -0.000902669
0.000160408 0.00100521 -0.000883781
0.000101485 0.000994143 -0.000865761
3.60065e-05 0.000967536 -0.000842955
1.80033e-05 0.000801766 -0.00070556
-1.61326e-05 0.00152781 -0.00093747
-2.96239e-05 0.00187356 -0.00115774
-3.85828e-05 0.00190876 -0.00121026
-3.5873e-05 0.00191088 -0.00123689
-2.01942e-05 0.00190902 -0.00125239
6.99387e-06 0.00190818 -0.00126159
4.33264e-05 0.00190953 -0.00126688
8.60666e-05 0.00191328 -0.00126918
0.000132238 0.00191939 -0.00126859
0.00017847 0.00192765 -0.00126475
0.000221033 0.00193768 -0.00125717
0.000255776 0.00194872 -0.00124547
0.000278403 0.00195962 -0.00122961
0.000285083 0.00196883 -0.00120988
0.000272799 0.00197434 -0.00118713
0.000239974 0.00197407 -0.00116254
0.000187074 0.00196569 -0.00113764
0.0001169 0.00194575 -0.00111369
3.73379e-05 0.00189271 -0.0010834
1.8669e-05 0.00154163 -0.000906603
-2.12663e-06 0.00248316 -0.00120285
-1.02898e-05 0.00310045 -0.00148366
-1.91249e-05 0.00317045 -0.00155022
-1.76197e-05 0.00317767 -0.00158361
-2.85258e-06 0.00317586 -0.00160264
2.4237e-05 0.00317416 -0.00161352
6.13803e-05 0.00317487 -0.00161938
0.00010582 0.00317858 -0.00162151
0.000154518 0.00318536 -0.00162012
0.000203933 0.00319506 -0.00161481
0.000249974 0.00320723 -0.00160497
0.000288014 0.0032209 -0.00159012
0.000313106 0.00323444 -0.00157016
0.000320486 0.00324573 -0.0015453
0.000306334 0.00325193 -0.00151647
0.000268185 0.00324995 -0.00148524
0.000205714 0.00323633 -0.00145343
0.00012156 0.00320487 -0.00142265
2.74957e-05 0.00311334 -0.00138411
1.37478e-05 0.00249319 -0.00116017
1.60531e-05 0.00367529 -0.00151097
1.64462e-05 0.00466651 -0.00185946
9.05278e-06 0.0047895 -0.00194076
9.52225e-06 0.00480588 -0.00198135
2.29466e-05 0.00480527 -0.00200423
4.92084e-05 0.00480281 -0.00201702
8.62934e-05 0.00480238 -0.00202362
0.0001315 0.00480514 -0.00202577
0.000181763 0.00481139 -0.0020237
0.000233423 0.00482111 -0.002017
0.000282093 0.00483382 -0.00200498
0.000322545 0.0048484 -0.00198699
0.000349201 0.00486286 -0.00196265
0.000356344 0.00487457 -0.00193231
0.000339185 0.00487978 -0.00189695
0.000294255 0.00487428 -0.00185835
0.000220339 0.00485335 -0.00181897
0.00012021 0.00480676 -0.00178105
1.10493e-05 0.00466103 -0.00173391
5.52466e-06 0.0036744 -0.00145611
3.94138e-05 0.00512476 -0.00184883
5.23152e-05 0.00660707 -0.00226923
4.80995e-05 0.00680546 -0.00236519
4.78197e-05 0.00683617 -0.00241302
5.93969e-05 0.00683833 -0.00243991
8.38521e-05 0.00683543 -0.00245479
0.000119612 0.00683348 -0.00246234
0.000164143 0.00683442 -0.00246471
0.000214484 0.00683891 -0.00246228
0.000266863 0.00684712 -0.00245452
0.000316651 0.00685857 -0.00244057
0.000358115 0.00687211 -0.00241966
0.000385053 0.00688549 -0.00239112
0.000390656 0.00689547 -0.00235537
0.000369019 0.00689766 -0.00231339
0.000315674 0.00688662 -0.00226721
0.000228466 0.00685593 -0.00221996
0.000110529 0.00678968 -0.00217472
-1.40556e-05 0.00657022 -0.00211888
-7.02782e-06 0.00510573 -0.00178244
6.87578e-05 0.00684621 -0.00220321
9.87783e-05 0.00895045 -0.00269655
9.98993e-05 0.00925072 -0.00280619
9.93526e-05 0.00930193 -0.00286086
0.000108597 0.00930878 -0.00289165
0.000130168 0.00930596 -0.0029087
0.000163138 0.0093023 -0.00291742
0.000205315 0.00930075 -0.00292033
0.000253877 0.00930239 -0.00291792
0.000305013 0.00930764 -0.00290966
0.00035399 0.00931613 -0.00289438
0.00039461 0.00932676 -0.00287119
0.000419969 0.00933711 -0.00283906
0.000422398 0.00934328 -0.00279829
0.000394623 0.00934018 -0.00274996
0.000330911 0.00932131 -0.00269639
0.00022825 0.00927821 -0.00264132
9.06076e-05 0.00918696 -0.0025888
-4.95724e-05 0.00887024 -0.00252451
-2.47862e-05 0.00680273 -0.00212691
0.000104441 0.00884456 -0.00256023
0.000156593 0.0117131 -0.0031242
0.000165501 0.0121454 -0.00324551
0.000165355 0.012224 -0.003306
0.000171858 0.0122376 -0.0033403
0.000189497 0.0122355 -0.00335942
0.000218231 0.0122302 -0.00336945
0.000256268 0.0122258 -0.00337329
0.000301065 0.0122238 -0.00337148
0.000348881 0.0122251 -0.00336347
0.000394944 0.0122294 -0.00334774
0.000432726 0.0122356 -0.00332326
0.000454459 0.0122412 -0.00328882
0.00045164 0.0122419 -0.00324421
0.000415724 0.0122317 -0.00319048
0.000339553 0.012203 -0.00313024
0.000219183 0.012145 -0.00306786
5.97533e-05 0.0120227 -0.00300846
-9.62102e-05 0.0115811 -0.00293626
-4.81051e-05 0.00877282 -0.00247676
0.000146196 0.0111133 -0.00290667
0.000225426 0.0148968 -0.0035358
0.000244564 0.015494 -0.00366569
0.000245555 0.0156072 -0.00373031
0.000249032 0.0156295 -0.00376726
0.000261844 0.0156289 -0.00378814
0.000285043 0.0156222 -0.00379953
0.000317379 0.0156149 -0.00380462
0.000356629 0.0156092 -0.00380402
0.000399252 0.015606 -0.00379721
0.000440325 0.0156056 -0.00378239
0.000473255 0.0156067 -0.00375804
0.000489579 0.0156067 -0.00372286
0.000479712 0.0156011 -0.00367621